 Entering Gaussian System, Link 0=g09
 Input=biphep_step3-sp.com
 Output=biphep_step3-sp.log
 Initial command:
 /cluster/apps/gaussian/g09/l1.exe "/cluster/scratch/sroediger/michael/gs/biphep/Gau-363507.inp" -scrdir="/cluster/scratch/sroediger/michael/gs/biphep/"
 Entering Link 1 = /cluster/apps/gaussian/g09/l1.exe PID=    363514.
  
 Copyright (c) 1988,1990,1992,1993,1995,1998,2003,2009,2013,
            Gaussian, Inc.  All Rights Reserved.
  
 This is part of the Gaussian(R) 09 program.  It is based on
 the Gaussian(R) 03 system (copyright 2003, Gaussian, Inc.),
 the Gaussian(R) 98 system (copyright 1998, Gaussian, Inc.),
 the Gaussian(R) 94 system (copyright 1995, Gaussian, Inc.),
 the Gaussian 92(TM) system (copyright 1992, Gaussian, Inc.),
 the Gaussian 90(TM) system (copyright 1990, Gaussian, Inc.),
 the Gaussian 88(TM) system (copyright 1988, Gaussian, Inc.),
 the Gaussian 86(TM) system (copyright 1986, Carnegie Mellon
 University), and the Gaussian 82(TM) system (copyright 1983,
 Carnegie Mellon University). Gaussian is a federally registered
 trademark of Gaussian, Inc.
  
 This software contains proprietary and confidential information,
 including trade secrets, belonging to Gaussian, Inc.
  
 This software is provided under written license and may be
 used, copied, transmitted, or stored only in accord with that
 written license.
  
 The following legend is applicable only to US Government
 contracts under FAR:
  
                    RESTRICTED RIGHTS LEGEND
  
 Use, reproduction and disclosure by the US Government is
 subject to restrictions as set forth in subparagraphs (a)
 and (c) of the Commercial Computer Software - Restricted
 Rights clause in FAR 52.227-19.
  
 Gaussian, Inc.
 340 Quinnipiac St., Bldg. 40, Wallingford CT 06492
  
  
 ---------------------------------------------------------------
 Warning -- This program may not be used in any manner that
 competes with the business of Gaussian, Inc. or will provide
 assistance to any competitor of Gaussian, Inc.  The licensee
 of this program is prohibited from giving any competitor of
 Gaussian, Inc. access to this program.  By using this program,
 the user acknowledges that Gaussian, Inc. is engaged in the
 business of creating and licensing software in the field of
 computational chemistry and represents and warrants to the
 licensee that it is not a competitor of Gaussian, Inc. and that
 it will not use this program in any manner prohibited above.
 ---------------------------------------------------------------
  

 Cite this work as:
 Gaussian 09, Revision D.01,
 M. J. Frisch, G. W. Trucks, H. B. Schlegel, G. E. Scuseria, 
 M. A. Robb, J. R. Cheeseman, G. Scalmani, V. Barone, B. Mennucci, 
 G. A. Petersson, H. Nakatsuji, M. Caricato, X. Li, H. P. Hratchian, 
 A. F. Izmaylov, J. Bloino, G. Zheng, J. L. Sonnenberg, M. Hada, 
 M. Ehara, K. Toyota, R. Fukuda, J. Hasegawa, M. Ishida, T. Nakajima, 
 Y. Honda, O. Kitao, H. Nakai, T. Vreven, J. A. Montgomery, Jr., 
 J. E. Peralta, F. Ogliaro, M. Bearpark, J. J. Heyd, E. Brothers, 
 K. N. Kudin, V. N. Staroverov, T. Keith, R. Kobayashi, J. Normand, 
 K. Raghavachari, A. Rendell, J. C. Burant, S. S. Iyengar, J. Tomasi, 
 M. Cossi, N. Rega, J. M. Millam, M. Klene, J. E. Knox, J. B. Cross, 
 V. Bakken, C. Adamo, J. Jaramillo, R. Gomperts, R. E. Stratmann, 
 O. Yazyev, A. J. Austin, R. Cammi, C. Pomelli, J. W. Ochterski, 
 R. L. Martin, K. Morokuma, V. G. Zakrzewski, G. A. Voth, 
 P. Salvador, J. J. Dannenberg, S. Dapprich, A. D. Daniels, 
 O. Farkas, J. B. Foresman, J. V. Ortiz, J. Cioslowski, 
 and D. J. Fox, Gaussian, Inc., Wallingford CT, 2013.
 
 ******************************************
 Gaussian 09:  ES64L-G09RevD.01 24-Apr-2013
                 6-Apr-2024 
 ******************************************
 %nprocshared=8
 Will use up to    8 processors via shared memory.
 %mem=16GB
 %oldchk=biphep_step3.chk
 %chk=biphep_step3-sp.chk
 Copying data from "biphep_step3.chk" to current chk file "biphep_step3-sp.chk".
 ----------------------------------------------------------------------
 #p sp geom=allcheck scrf(solvent=dichloromethane,smd) wb97xd genecp te
 mperature=313 integral(grid=ultrafine)
 ----------------------------------------------------------------------
 1/29=7,38=1,112=313000/1;
 2/12=2,40=1/2;
 3/5=7,11=2,14=-4,16=1,17=8,25=1,30=1,70=32201,72=9,74=-58,75=-5/1,2,3;
 4//1;
 5/5=2,38=5,53=9/2;
 6/7=2,8=2,9=2,10=2,28=1/1;
 99/5=1,9=1/99;
 Leave Link    1 at Sat Apr  6 19:58:42 2024, MaxMem=  2147483648 cpu:         1.8
 (Enter /cluster/apps/gaussian/g09/l101.exe)
 Structure from the checkpoint file:  "biphep_step3-sp.chk"
 -----
 title
 -----
 Charge =  0 Multiplicity = 1
 Redundant internal coordinates found in file.
 P,0,2.2820381742,0.8804084689,-1.335492982
 C,0,3.3626527974,1.408592814,0.0377967238
 C,0,4.7365626294,1.6100889799,-0.12133347
 C,0,5.4926092644,2.1009233973,0.938226237
 C,0,4.8794154479,2.418217348,2.1512984507
 C,0,3.5051618997,2.2486005691,2.3028928499
 C,0,2.7470487218,1.7433254136,1.2485014995
 H,0,1.6653620767,1.6106928999,1.3522547469
 H,0,3.0179571431,2.5088421162,3.2453844283
 H,0,5.4773055878,2.8062825612,2.9792666715
 H,0,6.569347505,2.2394618702,0.8166500679
 H,0,5.2174617811,1.3742871148,-1.0737863833
 C,0,3.0144821427,-0.4616795284,-2.3398545568
 C,0,2.5127583439,-0.5693431017,-3.6477348335
 C,0,2.8637355578,-1.6346149273,-4.4674497169
 C,0,3.7279913118,-2.6181468378,-3.9896778902
 C,0,4.2060944479,-2.5381766755,-2.6885080757
 C,0,3.8423128125,-1.484623247,-1.8372872189
 C,0,4.3309621228,-1.5232215173,-0.4351523978
 C,0,5.711103951,-1.5044825868,-0.2139446085
 C,0,6.2363174548,-1.5293164267,1.0743271356
 C,0,5.371932983,-1.5882530637,2.16195116
 C,0,3.9949452124,-1.6503348289,1.9557460082
 C,0,3.4534211353,-1.624445705,0.6672483497
 P,0,1.6334602148,-1.8283012929,0.3709627392
 C,0,0.9799966656,-2.2416205117,2.0186755303
 C,0,0.4617058635,-3.501837121,2.3227102735
 C,0,-0.0237954739,-3.7609235423,3.603651223
 C,0,0.0056396535,-2.7716387864,4.5828782943
 C,0,0.4969450738,-1.5031286742,4.2750872925
 C,0,0.9669550954,-1.2336174392,2.9941019263
 H,0,1.3275025416,-0.2318279032,2.7474231715
 H,0,0.4881619503,-0.7129497213,5.0294654409
 H,0,-0.3813649089,-2.9788203355,5.5830613256
 H,0,-0.4385385724,-4.7452431387,3.8321155302
 H,0,0.4185574586,-4.2737113423,1.5526222404
 C,0,1.6796017506,-3.3700602367,-0.6027776287
 C,0,0.9308853185,-3.4642535419,-1.7759566846
 C,0,1.0266185866,-4.6031959292,-2.5728639205
 C,0,1.86435458,-5.6508606384,-2.199319585
 C,0,2.6097793464,-5.5633744088,-1.0213086576
 C,0,2.522236778,-4.4251840567,-0.2260729578
 H,0,3.1207272439,-4.3488852867,0.6854019039
 C,0,1.6645574225,3.5102973265,-1.9126311904
 C,0,1.775966471,4.7258416903,-2.5791865282
 C,0,2.6051469763,4.8400233741,-3.6948704007
 C,0,3.3343319732,3.7368341176,-4.1333535288
 C,0,3.2287130559,2.5163783471,-3.4673136169
 C,0,2.3811155754,2.39259416,-2.3613371895
 H,0,3.8136286651,1.6619249888,-3.8131975559
 H,0,3.9946378115,3.823399337,-4.9994655356
 H,0,2.6856577784,5.7937295715,-4.2218226432
 H,0,1.2026695842,5.5863326383,-2.2277939982
 H,0,1.0079719412,3.4235618764,-1.0441296352
 H,0,3.2646538937,-6.3856840407,-0.723115576
 H,0,1.9373428239,-6.5439608167,-2.8250441912
 H,0,0.4347990074,-4.6669667316,-3.4886312654
 H,0,0.2649172425,-2.6508211827,-2.0606464456
 H,0,3.3331400301,-1.7404623801,2.8177802458
 H,0,5.7646156113,-1.6044451891,3.1810892704
 H,0,7.317626664,-1.4976039548,1.2258018009
 H,0,6.3780791098,-1.4424014073,-1.0775199541
 H,0,4.8416414507,-3.3314157727,-2.2893535538
 H,0,4.0076210334,-3.4635599224,-4.6217050081
 H,0,2.4541942067,-1.6984955938,-5.4778070774
 H,0,1.8272636705,0.1922248668,-4.0270370674
 Pd,0,0.3656850425,0.0045244552,-0.5359753255
 Cl,0,-1.674696717,-1.3243543586,-3.0961745211
 S,0,-2.36569425,-1.7200737375,-0.1795237444
 F,0,-2.0144070509,3.8958662055,1.993956736
 F,0,-2.5248275134,2.9706571579,4.4483503303
 F,0,-2.619338017,0.2958373716,4.917221029
 F,0,-2.1555274763,-1.4404428838,2.9268831758
 O,0,-1.62654878,-2.9579279964,-0.4042753003
 O,0,-3.6275180121,-1.7226676663,0.55777609
 O,0,-3.3108243064,4.5442761532,-2.5911391451
 N,0,-1.3639375177,-0.5964059331,0.4113324779
 C,0,-0.8023101439,1.5132603158,-1.1897324569
 C,0,-0.8576468672,1.8888338061,-2.5390158689
 H,0,-0.2146994276,1.390321706,-3.267353305
 C,0,-1.7045012546,2.8895358808,-2.9930370307
 H,0,-1.7354849538,3.1782608704,-4.0454156663
 C,0,-2.5291240561,3.5641301311,-2.0851027439
 C,0,-4.1582330412,5.2391839459,-1.7220335382
 H,0,-4.6840061196,5.9897895559,-2.3261848714
 H,0,-3.5968672583,5.7537647298,-0.9216321552
 H,0,-4.9051707943,4.5738207756,-1.2530924802
 C,0,-2.5141609911,3.191020186,-0.7421725398
 H,0,-3.1776753808,3.6768687884,-0.0294370911
 C,0,-1.6675395218,2.1588332336,-0.2903722571
 C,0,-1.8069983836,1.6989436729,1.1101027452
 C,0,-2.0450217233,2.5736401463,2.1716822854
 C,0,-2.3222618358,2.1138863048,3.4562399872
 C,0,-2.3766945732,0.7443107943,3.6943327478
 C,0,-2.1273966212,-0.1490867466,2.6580244702
 C,0,-1.7970784271,0.30696969,1.3765942612
 C,0,-2.8846166234,-1.1334582538,-1.8230810532
 H,0,-3.7613722093,-1.7441564994,-2.0741372079
 H,0,-3.1510738933,-0.0721443139,-1.7322875019
 Recover connectivity data from disk.
 NAtoms=     99 NQM=       99 NQMF=       0 NMMI=      0 NMMIF=      0
                NMic=       0 NMicF=      0.
                    Isotopes and Nuclear Properties:
 (Nuclear quadrupole moments (NQMom) in fm**2, nuclear magnetic moments (NMagM)
  in nuclear magnetons)

  Atom         1           2           3           4           5           6           7           8           9          10
 IAtWgt=          31          12          12          12          12          12          12           1           1           1
 AtmWgt=  30.9737634  12.0000000  12.0000000  12.0000000  12.0000000  12.0000000  12.0000000   1.0078250   1.0078250   1.0078250
 NucSpn=           1           0           0           0           0           0           0           1           1           1
 AtZEff= -12.9400000  -3.6000000  -3.6000000  -3.6000000  -3.6000000  -3.6000000  -3.6000000  -1.0000000  -1.0000000  -1.0000000
 NQMom=    0.0000000   0.0000000   0.0000000   0.0000000   0.0000000   0.0000000   0.0000000   0.0000000   0.0000000   0.0000000
 NMagM=    1.1316000   0.0000000   0.0000000   0.0000000   0.0000000   0.0000000   0.0000000   2.7928460   2.7928460   2.7928460
 AtZNuc=  15.0000000   6.0000000   6.0000000   6.0000000   6.0000000   6.0000000   6.0000000   1.0000000   1.0000000   1.0000000

  Atom        11          12          13          14          15          16          17          18          19          20
 IAtWgt=           1           1          12          12          12          12          12          12          12          12
 AtmWgt=   1.0078250   1.0078250  12.0000000  12.0000000  12.0000000  12.0000000  12.0000000  12.0000000  12.0000000  12.0000000
 NucSpn=           1           1           0           0           0           0           0           0           0           0
 AtZEff=  -1.0000000  -1.0000000  -3.6000000  -3.6000000  -3.6000000  -3.6000000  -3.6000000  -3.6000000  -3.6000000  -3.6000000
 NQMom=    0.0000000   0.0000000   0.0000000   0.0000000   0.0000000   0.0000000   0.0000000   0.0000000   0.0000000   0.0000000
 NMagM=    2.7928460   2.7928460   0.0000000   0.0000000   0.0000000   0.0000000   0.0000000   0.0000000   0.0000000   0.0000000
 AtZNuc=   1.0000000   1.0000000   6.0000000   6.0000000   6.0000000   6.0000000   6.0000000   6.0000000   6.0000000   6.0000000

  Atom        21          22          23          24          25          26          27          28          29          30
 IAtWgt=          12          12          12          12          31          12          12          12          12          12
 AtmWgt=  12.0000000  12.0000000  12.0000000  12.0000000  30.9737634  12.0000000  12.0000000  12.0000000  12.0000000  12.0000000
 NucSpn=           0           0           0           0           1           0           0           0           0           0
 AtZEff=  -3.6000000  -3.6000000  -3.6000000  -3.6000000 -12.9400000  -3.6000000  -3.6000000  -3.6000000  -3.6000000  -3.6000000
 NQMom=    0.0000000   0.0000000   0.0000000   0.0000000   0.0000000   0.0000000   0.0000000   0.0000000   0.0000000   0.0000000
 NMagM=    0.0000000   0.0000000   0.0000000   0.0000000   1.1316000   0.0000000   0.0000000   0.0000000   0.0000000   0.0000000
 AtZNuc=   6.0000000   6.0000000   6.0000000   6.0000000  15.0000000   6.0000000   6.0000000   6.0000000   6.0000000   6.0000000

  Atom        31          32          33          34          35          36          37          38          39          40
 IAtWgt=          12           1           1           1           1           1          12          12          12          12
 AtmWgt=  12.0000000   1.0078250   1.0078250   1.0078250   1.0078250   1.0078250  12.0000000  12.0000000  12.0000000  12.0000000
 NucSpn=           0           1           1           1           1           1           0           0           0           0
 AtZEff=  -3.6000000  -1.0000000  -1.0000000  -1.0000000  -1.0000000  -1.0000000  -3.6000000  -3.6000000  -3.6000000  -3.6000000
 NQMom=    0.0000000   0.0000000   0.0000000   0.0000000   0.0000000   0.0000000   0.0000000   0.0000000   0.0000000   0.0000000
 NMagM=    0.0000000   2.7928460   2.7928460   2.7928460   2.7928460   2.7928460   0.0000000   0.0000000   0.0000000   0.0000000
 AtZNuc=   6.0000000   1.0000000   1.0000000   1.0000000   1.0000000   1.0000000   6.0000000   6.0000000   6.0000000   6.0000000

  Atom        41          42          43          44          45          46          47          48          49          50
 IAtWgt=          12          12           1          12          12          12          12          12          12           1
 AtmWgt=  12.0000000  12.0000000   1.0078250  12.0000000  12.0000000  12.0000000  12.0000000  12.0000000  12.0000000   1.0078250
 NucSpn=           0           0           1           0           0           0           0           0           0           1
 AtZEff=  -3.6000000  -3.6000000  -1.0000000  -3.6000000  -3.6000000  -3.6000000  -3.6000000  -3.6000000  -3.6000000  -1.0000000
 NQMom=    0.0000000   0.0000000   0.0000000   0.0000000   0.0000000   0.0000000   0.0000000   0.0000000   0.0000000   0.0000000
 NMagM=    0.0000000   0.0000000   2.7928460   0.0000000   0.0000000   0.0000000   0.0000000   0.0000000   0.0000000   2.7928460
 AtZNuc=   6.0000000   6.0000000   1.0000000   6.0000000   6.0000000   6.0000000   6.0000000   6.0000000   6.0000000   1.0000000

  Atom        51          52          53          54          55          56          57          58          59          60
 IAtWgt=           1           1           1           1           1           1           1           1           1           1
 AtmWgt=   1.0078250   1.0078250   1.0078250   1.0078250   1.0078250   1.0078250   1.0078250   1.0078250   1.0078250   1.0078250
 NucSpn=           1           1           1           1           1           1           1           1           1           1
 AtZEff=  -1.0000000  -1.0000000  -1.0000000  -1.0000000  -1.0000000  -1.0000000  -1.0000000  -1.0000000  -1.0000000  -1.0000000
 NQMom=    0.0000000   0.0000000   0.0000000   0.0000000   0.0000000   0.0000000   0.0000000   0.0000000   0.0000000   0.0000000
 NMagM=    2.7928460   2.7928460   2.7928460   2.7928460   2.7928460   2.7928460   2.7928460   2.7928460   2.7928460   2.7928460
 AtZNuc=   1.0000000   1.0000000   1.0000000   1.0000000   1.0000000   1.0000000   1.0000000   1.0000000   1.0000000   1.0000000

  Atom        61          62          63          64          65          66          67          68          69          70
 IAtWgt=           1           1           1           1           1           1         106          35          32          19
 AtmWgt=   1.0078250   1.0078250   1.0078250   1.0078250   1.0078250   1.0078250 105.9032000  34.9688527  31.9720718  18.9984033
 NucSpn=           1           1           1           1           1           1           0           3           0           1
 AtZEff=  -1.0000000  -1.0000000  -1.0000000  -1.0000000  -1.0000000  -1.0000000-237.3600000 -14.2400000 -13.6000000  -6.7500000
 NQMom=    0.0000000   0.0000000   0.0000000   0.0000000   0.0000000   0.0000000   0.0000000  -8.1650000   0.0000000   0.0000000
 NMagM=    2.7928460   2.7928460   2.7928460   2.7928460   2.7928460   2.7928460   0.0000000   0.8218740   0.0000000   2.6288670
 AtZNuc=   1.0000000   1.0000000   1.0000000   1.0000000   1.0000000   1.0000000  46.0000000  17.0000000  16.0000000   9.0000000

  Atom        71          72          73          74          75          76          77          78          79          80
 IAtWgt=          19          19          19          16          16          16          14          12          12           1
 AtmWgt=  18.9984033  18.9984033  18.9984033  15.9949146  15.9949146  15.9949146  14.0030740  12.0000000  12.0000000   1.0078250
 NucSpn=           1           1           1           0           0           0           2           0           0           1
 AtZEff=  -6.7500000  -6.7500000  -6.7500000  -5.6000000  -5.6000000  -5.6000000  -4.5500000  -3.6000000  -3.6000000  -1.0000000
 NQMom=    0.0000000   0.0000000   0.0000000   0.0000000   0.0000000   0.0000000   2.0440000   0.0000000   0.0000000   0.0000000
 NMagM=    2.6288670   2.6288670   2.6288670   0.0000000   0.0000000   0.0000000   0.4037610   0.0000000   0.0000000   2.7928460
 AtZNuc=   9.0000000   9.0000000   9.0000000   8.0000000   8.0000000   8.0000000   7.0000000   6.0000000   6.0000000   1.0000000

  Atom        81          82          83          84          85          86          87          88          89          90
 IAtWgt=          12           1          12          12           1           1           1          12           1          12
 AtmWgt=  12.0000000   1.0078250  12.0000000  12.0000000   1.0078250   1.0078250   1.0078250  12.0000000   1.0078250  12.0000000
 NucSpn=           0           1           0           0           1           1           1           0           1           0
 AtZEff=  -3.6000000  -1.0000000  -3.6000000  -3.6000000  -1.0000000  -1.0000000  -1.0000000  -3.6000000  -1.0000000  -3.6000000
 NQMom=    0.0000000   0.0000000   0.0000000   0.0000000   0.0000000   0.0000000   0.0000000   0.0000000   0.0000000   0.0000000
 NMagM=    0.0000000   2.7928460   0.0000000   0.0000000   2.7928460   2.7928460   2.7928460   0.0000000   2.7928460   0.0000000
 AtZNuc=   6.0000000   1.0000000   6.0000000   6.0000000   1.0000000   1.0000000   1.0000000   6.0000000   1.0000000   6.0000000

  Atom        91          92          93          94          95          96          97          98          99
 IAtWgt=          12          12          12          12          12          12          12           1           1
 AtmWgt=  12.0000000  12.0000000  12.0000000  12.0000000  12.0000000  12.0000000  12.0000000   1.0078250   1.0078250
 NucSpn=           0           0           0           0           0           0           0           1           1
 AtZEff=  -3.6000000  -3.6000000  -3.6000000  -3.6000000  -3.6000000  -3.6000000  -3.6000000  -1.0000000  -1.0000000
 NQMom=    0.0000000   0.0000000   0.0000000   0.0000000   0.0000000   0.0000000   0.0000000   0.0000000   0.0000000
 NMagM=    0.0000000   0.0000000   0.0000000   0.0000000   0.0000000   0.0000000   0.0000000   2.7928460   2.7928460
 AtZNuc=   6.0000000   6.0000000   6.0000000   6.0000000   6.0000000   6.0000000   6.0000000   1.0000000   1.0000000
 Leave Link  101 at Sat Apr  6 19:58:42 2024, MaxMem=  2147483648 cpu:         2.0
 (Enter /cluster/apps/gaussian/g09/l202.exe)
 Stoichiometry    C50H36ClF4NO3P2PdS
 Framework group  C1[X(C50H36ClF4NO3P2PdS)]
 Deg. of freedom   291
 Full point group                 C1      NOp   1
 RotChk:  IX=0 Diff= 3.85D-15
 Largest Abelian subgroup         C1      NOp   1
 Largest concise Abelian subgroup C1      NOp   1
                         Standard orientation:                         
 ---------------------------------------------------------------------
 Center     Atomic      Atomic             Coordinates (Angstroms)
 Number     Number       Type             X           Y           Z
 ---------------------------------------------------------------------
      1         15           0        0.957362    1.919798    0.485159
      2          6           0        1.246384    1.652120    2.267698
      3          6           0        2.244223    2.326318    2.977153
      4          6           0        2.357193    2.149340    4.352329
      5          6           0        1.460748    1.321664    5.030242
      6          6           0        0.445441    0.673259    4.330924
      7          6           0        0.338300    0.836637    2.951211
      8          1           0       -0.458458    0.337621    2.390353
      9          1           0       -0.267580    0.035699    4.858659
     10          1           0        1.551998    1.188534    6.110773
     11          1           0        3.149924    2.662971    4.901054
     12          1           0        2.939859    2.984644    2.451101
     13          6           0        2.507132    1.975689   -0.485152
     14          6           0        2.417913    2.653435   -1.712576
     15          6           0        3.470175    2.640734   -2.619497
     16          6           0        4.637858    1.944311   -2.312824
     17          6           0        4.725829    1.245797   -1.116011
     18          6           0        3.664400    1.225038   -0.199591
     19          6           0        3.811035    0.383002    1.015203
     20          6           0        4.849381    0.677185    1.903667
     21          6           0        5.038156   -0.065531    3.065065
     22          6           0        4.186236   -1.129620    3.339852
     23          6           0        3.172874   -1.461318    2.442331
     24          6           0        2.970637   -0.722904    1.272720
     25         15           0        1.706804   -1.223884    0.010442
     26          6           0        1.123715   -2.839273    0.613211
     27          6           0        1.392824   -4.030859   -0.062741
     28          6           0        0.920992   -5.239202    0.448071
     29          6           0        0.183880   -5.266309    1.628904
     30          6           0       -0.110692   -4.075251    2.292109
     31          6           0        0.342822   -2.864999    1.778218
     32          1           0        0.089166   -1.930537    2.285039
     33          1           0       -0.719782   -4.087855    3.198971
     34          1           0       -0.187941   -6.215470    2.021212
     35          1           0        1.125030   -6.166806   -0.091386
     36          1           0        1.953129   -4.011876   -0.998896
     37          6           0        2.825052   -1.535164   -1.396664
     38          6           0        2.507618   -1.019861   -2.653443
     39          6           0        3.396913   -1.176644   -3.714570
     40          6           0        4.600548   -1.850851   -3.525768
     41          6           0        4.918392   -2.374890   -2.270627
     42          6           0        4.036321   -2.214854   -1.206728
     43          1           0        4.294394   -2.607890   -0.219956
     44          6           0       -0.957601    3.830946    1.042941
     45          6           0       -1.454418    5.116314    1.230708
     46          6           0       -0.657315    6.224576    0.944853
     47          6           0        0.644700    6.042510    0.483753
     48          6           0        1.149055    4.756138    0.296270
     49          6           0        0.344817    3.642562    0.560995
     50          1           0        2.174590    4.625813   -0.054650
     51          1           0        1.277830    6.906751    0.269555
     52          1           0       -1.051823    7.233645    1.085777
     53          1           0       -2.475325    5.250405    1.594519
     54          1           0       -1.588138    2.966112    1.260675
     55          1           0        5.860084   -2.908376   -2.120353
     56          1           0        5.296398   -1.973873   -4.359521
     57          1           0        3.137602   -0.770404   -4.694709
     58          1           0        1.559817   -0.504985   -2.804474
     59          1           0        2.541400   -2.325519    2.651160
     60          1           0        4.315534   -1.722127    4.248324
     61          1           0        5.845817    0.191127    3.754260
     62          1           0        5.501597    1.525889    1.682784
     63          1           0        5.616413    0.655153   -0.891355
     64          1           0        5.470349    1.921756   -3.019100
     65          1           0        3.372646    3.169896   -3.569814
     66          1           0        1.502632    3.194033   -1.965113
     67         46           0       -0.195217    0.193506   -0.392503
     68         17           0       -0.553553    0.461094   -3.897312
     69         16           0       -1.413717   -2.033556   -2.421587
     70          9           0       -4.819913    0.215288    2.019891
     71          9           0       -5.141969   -2.245776    3.009858
     72          9           0       -3.743184   -4.335617    1.980587
     73          9           0       -1.991372   -3.937305   -0.010326
     74          8           0       -0.065180   -2.447872   -2.794310
     75          8           0       -2.547116   -2.943797   -2.572194
     76          8           0       -5.365928    3.402670   -1.539140
     77          7           0       -1.388325   -1.397879   -0.934803
     78          6           0       -1.876557    1.256758   -0.724897
     79          6           0       -1.887322    2.417451   -1.510619
     80          1           0       -0.952190    2.801225   -1.923677
     81          6           0       -3.055714    3.114051   -1.783216
     82          1           0       -3.052034    4.020450   -2.391698
     83          6           0       -4.270740    2.662834   -1.254500
     84          6           0       -6.603559    2.984338   -1.039529
     85          1           0       -7.344205    3.723918   -1.370149
     86          1           0       -6.609857    2.940860    0.064390
     87          1           0       -6.893122    1.992351   -1.430228
     88          6           0       -4.292130    1.495407   -0.493216
     89          1           0       -5.233207    1.107737   -0.108019
     90          6           0       -3.105131    0.779845   -0.237665
     91          6           0       -3.208656   -0.532432    0.440191
     92          6           0       -4.105635   -0.775258    1.481904
     93          6           0       -4.296455   -2.050615    2.006668
     94          6           0       -3.584645   -3.121199    1.475101
     95          6           0       -2.672565   -2.904453    0.447786
     96          6           0       -2.438228   -1.616922   -0.048715
     97          6           0       -1.858993   -0.678332   -3.552859
     98          1           0       -2.148490   -1.177136   -4.486705
     99          1           0       -2.705932   -0.136708   -3.111308
 ---------------------------------------------------------------------
 Rotational constants (GHZ):      0.0468305      0.0401561      0.0342654
 Leave Link  202 at Sat Apr  6 19:58:42 2024, MaxMem=  2147483648 cpu:         0.0
 (Enter /cluster/apps/gaussian/g09/l301.exe)
 General basis read from cards:  (5D, 7F)
 Centers:       2      3      4      5      6      7     13     14     15     16
 Centers:      17     18     19     20     21     22     23     24     26     27
 Centers:      28     29     30     31     37     38     39     40     41     42
 Centers:      44     45     46     47     48     49     78     79     81     83
 Centers:      84     88     90     91     92     93     94     95     96     97
 Centers:       8      9     10     11     12     32     33     34     35     36
 Centers:      43     50     51     52     53     54     55     56     57     58
 Centers:      59     60     61     62     63     64     65     66     80     82
 Centers:      85     86     87     89     98     99     69     70     71     72
 Centers:      73     77      1     25     68     74     75     76     67
 def2tzvp
 ****
 ======================================================================================================
                                       Pseudopotential Parameters
 ======================================================================================================
  Center     Atomic      Valence      Angular      Power
  Number     Number     Electrons     Momentum     of R      Exponent        Coefficient   SO-Coeffient
 ======================================================================================================
    1         15
                                   No pseudopotential on this center.
    2          6
                                   No pseudopotential on this center.
    3          6
                                   No pseudopotential on this center.
    4          6
                                   No pseudopotential on this center.
    5          6
                                   No pseudopotential on this center.
    6          6
                                   No pseudopotential on this center.
    7          6
                                   No pseudopotential on this center.
    8          1
                                   No pseudopotential on this center.
    9          1
                                   No pseudopotential on this center.
   10          1
                                   No pseudopotential on this center.
   11          1
                                   No pseudopotential on this center.
   12          1
                                   No pseudopotential on this center.
   13          6
                                   No pseudopotential on this center.
   14          6
                                   No pseudopotential on this center.
   15          6
                                   No pseudopotential on this center.
   16          6
                                   No pseudopotential on this center.
   17          6
                                   No pseudopotential on this center.
   18          6
                                   No pseudopotential on this center.
   19          6
                                   No pseudopotential on this center.
   20          6
                                   No pseudopotential on this center.
   21          6
                                   No pseudopotential on this center.
   22          6
                                   No pseudopotential on this center.
   23          6
                                   No pseudopotential on this center.
   24          6
                                   No pseudopotential on this center.
   25         15
                                   No pseudopotential on this center.
   26          6
                                   No pseudopotential on this center.
   27          6
                                   No pseudopotential on this center.
   28          6
                                   No pseudopotential on this center.
   29          6
                                   No pseudopotential on this center.
   30          6
                                   No pseudopotential on this center.
   31          6
                                   No pseudopotential on this center.
   32          1
                                   No pseudopotential on this center.
   33          1
                                   No pseudopotential on this center.
   34          1
                                   No pseudopotential on this center.
   35          1
                                   No pseudopotential on this center.
   36          1
                                   No pseudopotential on this center.
   37          6
                                   No pseudopotential on this center.
   38          6
                                   No pseudopotential on this center.
   39          6
                                   No pseudopotential on this center.
   40          6
                                   No pseudopotential on this center.
   41          6
                                   No pseudopotential on this center.
   42          6
                                   No pseudopotential on this center.
   43          1
                                   No pseudopotential on this center.
   44          6
                                   No pseudopotential on this center.
   45          6
                                   No pseudopotential on this center.
   46          6
                                   No pseudopotential on this center.
   47          6
                                   No pseudopotential on this center.
   48          6
                                   No pseudopotential on this center.
   49          6
                                   No pseudopotential on this center.
   50          1
                                   No pseudopotential on this center.
   51          1
                                   No pseudopotential on this center.
   52          1
                                   No pseudopotential on this center.
   53          1
                                   No pseudopotential on this center.
   54          1
                                   No pseudopotential on this center.
   55          1
                                   No pseudopotential on this center.
   56          1
                                   No pseudopotential on this center.
   57          1
                                   No pseudopotential on this center.
   58          1
                                   No pseudopotential on this center.
   59          1
                                   No pseudopotential on this center.
   60          1
                                   No pseudopotential on this center.
   61          1
                                   No pseudopotential on this center.
   62          1
                                   No pseudopotential on this center.
   63          1
                                   No pseudopotential on this center.
   64          1
                                   No pseudopotential on this center.
   65          1
                                   No pseudopotential on this center.
   66          1
                                   No pseudopotential on this center.
   67         46           18
                                      G and up 
                                                     2        1.0000000        0.00000000    0.00000000
                                      S - G
                                                     2       12.4300000      240.22904000    0.00000000
                                                     2        6.1707590       35.17194300    0.00000000
                                      P - G
                                                     2       11.0800000      170.41727600    0.00000000
                                                     2        5.8295540       28.47213300    0.00000000
                                      D - G
                                                     2        9.5100000       69.01384500    0.00000000
                                                     2        4.1397810       11.75086200    0.00000000
                                      F - G
                                                     2       13.2700000      -31.92955400    0.00000000
                                                     2        6.6300000       -5.39821700    0.00000000
   68         17
                                   No pseudopotential on this center.
   69         16
                                   No pseudopotential on this center.
   70          9
                                   No pseudopotential on this center.
   71          9
                                   No pseudopotential on this center.
   72          9
                                   No pseudopotential on this center.
   73          9
                                   No pseudopotential on this center.
   74          8
                                   No pseudopotential on this center.
   75          8
                                   No pseudopotential on this center.
   76          8
                                   No pseudopotential on this center.
   77          7
                                   No pseudopotential on this center.
   78          6
                                   No pseudopotential on this center.
   79          6
                                   No pseudopotential on this center.
   80          1
                                   No pseudopotential on this center.
   81          6
                                   No pseudopotential on this center.
   82          1
                                   No pseudopotential on this center.
   83          6
                                   No pseudopotential on this center.
   84          6
                                   No pseudopotential on this center.
   85          1
                                   No pseudopotential on this center.
   86          1
                                   No pseudopotential on this center.
   87          1
                                   No pseudopotential on this center.
   88          6
                                   No pseudopotential on this center.
   89          1
                                   No pseudopotential on this center.
   90          6
                                   No pseudopotential on this center.
   91          6
                                   No pseudopotential on this center.
   92          6
                                   No pseudopotential on this center.
   93          6
                                   No pseudopotential on this center.
   94          6
                                   No pseudopotential on this center.
   95          6
                                   No pseudopotential on this center.
   96          6
                                   No pseudopotential on this center.
   97          6
                                   No pseudopotential on this center.
   98          1
                                   No pseudopotential on this center.
   99          1
                                   No pseudopotential on this center.
 ======================================================================================================
 Ernie: Thresh=  0.10000D-02 Tol=  0.10000D-05 Strict=F.
 There are  2518 symmetry adapted cartesian basis functions of A   symmetry.
 There are  2202 symmetry adapted basis functions of A   symmetry.
  2202 basis functions,  3596 primitive gaussians,  2518 cartesian basis functions
   242 alpha electrons      242 beta electrons
       nuclear repulsion energy     12304.7577795378 Hartrees.
 IExCor= 4639 DFT=T Ex+Corr=wB97XD ExCW=0 ScaHFX=  1.000000
 ScaDFX=  1.000000  1.000000  1.000000  1.000000 ScalE2=  1.000000  1.000000
 IRadAn=      5 IRanWt=     -1 IRanGd=            0 ICorTp=0 IEmpDi=121
  HFx wShort=  0.000000 wLong=  0.200000 cFull=  0.222036 cShort=  0.000000 cLong=  0.777964
  DFx wShort=  0.000000 wLong=  0.200000 cFull=  0.000000 cShort=  0.000000 cLong=  1.000000
 NAtoms=   99 NActive=   99 NUniq=   99 SFac= 1.00D+00 NAtFMM=   60 NAOKFM=T Big=T
 Integral buffers will be    131072 words long.
 Raffenetti 2 integral format.
 Two-electron integral symmetry is turned on.
 R6Disp:  Grimme-D2 Dispersion energy=       -0.1417753058 Hartrees.
 Nuclear repulsion after empirical dispersion term =    12304.6160042319 Hartrees.
 ------------------------------------------------------------------------------
 Polarizable Continuum Model (PCM)
 =================================
 Model                : PCM (using non-symmetric T matrix).
 Atomic radii         : SMD-Coulomb.
 Polarization charges : Total charges.
 Charge compensation  : None.
 Solution method      : On-the-fly selection.
 Cavity type          : VdW (van der Waals Surface) (Alpha=1.000).
 Cavity algorithm     : GePol (No added spheres)
                        Default sphere list used, NSphG=   99.
                        Lebedev-Laikov grids with approx.  5.0 points / Ang**2.
                        Smoothing algorithm: Karplus/York (Gamma=1.0000).
                        Polarization charges: spherical gaussians, with
                                              point-specific exponents (IZeta= 3).
                        Self-potential: point-specific (ISelfS= 7).
                        Self-field    : sphere-specific E.n sum rule (ISelfD= 2).
 Solvent              : Dichloromethane, Eps=   8.930000 Eps(inf)=   2.028346
 ------------------------------------------------------------------------------
 GePol: Number of generator spheres                  =      99
 GePol: Total number of spheres                      =      99
 GePol: Number of exposed spheres                    =      99 (100.00%)
 GePol: Number of points                             =    7088
 GePol: Average weight of points                     =       0.11
 GePol: Minimum weight of points                     =   0.51D-11
 GePol: Maximum weight of points                     =    0.21501
 GePol: Number of points with low weight             =     493
 GePol: Fraction of low-weight points (<1% of avg)   =       6.96%
 GePol: Cavity surface area                          =    792.175 Ang**2
 GePol: Cavity volume                                =    896.248 Ang**3
 ------------------------------------------------------------------------------
 Atomic radii for non-electrostatic terms: SMD-CDS.
 ------------------------------------------------------------------------------
 PCM non-electrostatic energy =        -0.0207063847 Hartrees.
 Nuclear repulsion after PCM non-electrostatic terms =    12304.5952978473 Hartrees.
 Leave Link  301 at Sat Apr  6 19:58:42 2024, MaxMem=  2147483648 cpu:         0.4
 (Enter /cluster/apps/gaussian/g09/l302.exe)
 NPDir=0 NMtPBC=     1 NCelOv=     1 NCel=       1 NClECP=     1 NCelD=      1
         NCelK=      1 NCelE2=     1 NClLst=     1 CellRange=     0.0.
 One-electron integrals computed using PRISM.
   1 Symmetry operations used in ECPInt.
 ECPInt:  NShTT=  359976 NPrTT= 1134806 LenC2=  267719 LenP2D=  536699.
 LDataN:  DoStor=T MaxTD1= 7 Len=  274
 NBasis=  2202 RedAO= T EigKep=  3.24D-06  NBF=  2202
 NBsUse=  2202 1.00D-06 EigRej= -1.00D+00 NBFU=  2202
 Precomputing XC quadrature grid using
 IXCGrd= 4 IRadAn=           5 IRanWt=          -1 IRanGd=           0 AccXCQ= 0.00D+00.
 Defaulting to unpruned grid for atomic number  46.
 Generated NRdTot=       0 NPtTot=           0 NUsed=           0 NTot=          32
 NSgBfM=  2306  2306  2306  2306  2306 MxSgAt=    99 MxSgA2=    99.
 Leave Link  302 at Sat Apr  6 19:58:53 2024, MaxMem=  2147483648 cpu:        88.3
 (Enter /cluster/apps/gaussian/g09/l303.exe)
 DipDrv:  MaxL=1.
 Leave Link  303 at Sat Apr  6 19:58:54 2024, MaxMem=  2147483648 cpu:         4.9
 (Enter /cluster/apps/gaussian/g09/l401.exe)
 ExpMin= 3.70D-02 ExpMax= 6.95D+04 ExpMxC= 2.37D+03 IAcc=3 IRadAn=         5 AccDes= 0.00D+00
 Harris functional with IExCor= 4639 and IRadAn=       5 diagonalized for initial guess.
 HarFok:  IExCor= 4639 AccDes= 0.00D+00 IRadAn=         5 IDoV= 1 UseB2=F ITyADJ=14
 ICtDFT=  3500011 ScaDFX=  1.000000  1.000000  1.000000  1.000000
 Defaulting to unpruned grid for atomic number  46.
 Defaulting to unpruned grid for atomic number  46.
 Defaulting to unpruned grid for atomic number  46.
 Defaulting to unpruned grid for atomic number  46.
 Defaulting to unpruned grid for atomic number  46.
 Defaulting to unpruned grid for atomic number  46.
 Defaulting to unpruned grid for atomic number  46.
 Defaulting to unpruned grid for atomic number  46.
 FoFCou: FMM=F IPFlag=           0 FMFlag=      100000 FMFlg1=        2001
         NFxFlg=           0 DoJE=T BraDBF=F KetDBF=T FulRan=T
         wScrn=  0.000000 ICntrl=     500 IOpCl=  0 I1Cent=   200000004 NGrid=           0
         NMat0=    1 NMatS0=      1 NMatT0=    0 NMatD0=    1 NMtDS0=    0 NMtDT0=    0
 Petite list used in FoFCou.
 Harris En= -4136.30519050041    
 JPrj=0 DoOrth=F DoCkMO=F.
 Leave Link  401 at Sat Apr  6 19:59:32 2024, MaxMem=  2147483648 cpu:       301.7
 (Enter /cluster/apps/gaussian/g09/l502.exe)
 Closed shell SCF:
 Using DIIS extrapolation, IDIIS=  1040.
 Integral symmetry usage will be decided dynamically.
 IVT=    19078022 IEndB=    19078022 NGot=  2147483648 MDV=  2134765109
 LenX=  2134765109 LenY=  2128422267
 Requested convergence on RMS density matrix=1.00D-08 within 128 cycles.
 Requested convergence on MAX density matrix=1.00D-06.
 Requested convergence on             energy=1.00D-06.
 No special actions if energy rises.
 Fock matrices will be formed incrementally for  20 cycles.

 Cycle   1  Pass 1  IDiag  1:
 FoFJK:  IHMeth= 1 ICntrl=       0 DoSepK=T KAlg= 0 I1Cent=   0 FoldK=F
 IRaf=         1 NMat=   1 IRICut=       1 DoRegI=T DoRafI=F ISym2E= 0.
 FoFCou: FMM=T IPFlag=           0 FMFlag=      100000 FMFlg1=        2001
         NFxFlg=           0 DoJE=T BraDBF=F KetDBF=F FulRan=T
         wScrn=  0.000000 ICntrl=     500 IOpCl=  0 I1Cent=           0 NGrid=           0
         NMat0=    1 NMatS0=      1 NMatT0=    0 NMatD0=    1 NMtDS0=    0 NMtDT0=    0
 Symmetry not used in FoFCou.
 FMM levels:  10  Number of levels for PrismC:   9
 Defaulting to unpruned grid for atomic number  46.
 Defaulting to unpruned grid for atomic number  46.
 Defaulting to unpruned grid for atomic number  46.
 Defaulting to unpruned grid for atomic number  46.
 Defaulting to unpruned grid for atomic number  46.
 Defaulting to unpruned grid for atomic number  46.
 Defaulting to unpruned grid for atomic number  46.
 Defaulting to unpruned grid for atomic number  46.
 Inv3:  Mode=1 IEnd=   150719232.
 Iteration    1 A*A^-1 deviation from unit magnitude is 1.12D-14 for   7085.
 Iteration    1 A*A^-1 deviation from orthogonality  is 7.04D-15 for   7085   6622.
 Iteration    1 A^-1*A deviation from unit magnitude is 1.13D-14 for   7085.
 Iteration    1 A^-1*A deviation from orthogonality  is 3.44D-12 for   2903   2901.
 E= -4260.52302049255    
 DIIS: error= 3.66D-02 at cycle   1 NSaved=   1.
 NSaved= 1 IEnMin= 1 EnMin= -4260.52302049255     IErMin= 1 ErrMin= 3.66D-02
 ErrMax= 3.66D-02  0.00D+00 EMaxC= 1.00D-01 BMatC= 1.66D+01 BMatP= 1.66D+01
 IDIUse=3 WtCom= 6.34D-01 WtEn= 3.66D-01
 Coeff-Com:  0.100D+01
 Coeff-En:   0.100D+01
 Coeff:      0.100D+01
 Gap=     0.053 Goal=   None    Shift=    0.000
 GapD=    0.053 DampG=0.500 DampE=0.250 DampFc=0.1250 IDamp=-1.
 Damping current iteration by 1.25D-01
 RMSDP=1.38D-01 MaxDP=3.87D+01              OVMax= 9.89D-01

 Cycle   2  Pass 1  IDiag  1:
 RMSU=  1.68D-02    CP:  1.47D+00
 E= -4263.28595068821     Delta-E=       -2.762930195662 Rises=F Damp=T
 DIIS: error= 3.09D-02 at cycle   2 NSaved=   2.
 NSaved= 2 IEnMin= 2 EnMin= -4263.28595068821     IErMin= 2 ErrMin= 3.09D-02
 ErrMax= 3.09D-02  0.00D+00 EMaxC= 1.00D-01 BMatC= 7.02D+00 BMatP= 1.66D+01
 IDIUse=3 WtCom= 6.91D-01 WtEn= 3.09D-01
 Coeff-Com: -0.692D+00 0.169D+01
 Coeff-En:   0.240D+00 0.760D+00
 Coeff:     -0.405D+00 0.140D+01
 Gap=     0.193 Goal=   None    Shift=    0.000
 RMSDP=1.71D-02 MaxDP=4.92D+00 DE=-2.76D+00 OVMax= 9.54D-01

 Cycle   3  Pass 1  IDiag  1:
 RMSU=  4.15D-03    CP:  5.44D-01  1.09D-01
 E= -4273.39644154230     Delta-E=      -10.110490854087 Rises=F Damp=F
 DIIS: error= 2.07D-02 at cycle   3 NSaved=   3.
 NSaved= 3 IEnMin= 3 EnMin= -4273.39644154230     IErMin= 3 ErrMin= 2.07D-02
 ErrMax= 2.07D-02  0.00D+00 EMaxC= 1.00D-01 BMatC= 3.85D+00 BMatP= 7.02D+00
 IDIUse=3 WtCom= 7.93D-01 WtEn= 2.07D-01
 Coeff-Com: -0.161D+00 0.597D+00 0.564D+00
 Coeff-En:   0.144D+00 0.000D+00 0.856D+00
 Coeff:     -0.977D-01 0.473D+00 0.624D+00
 Gap=     0.379 Goal=   None    Shift=    0.000
 RMSDP=3.35D-03 MaxDP=1.30D+00 DE=-1.01D+01 OVMax= 3.51D-01

 Cycle   4  Pass 1  IDiag  1:
 RMSU=  2.10D-03    CP:  4.83D-01  1.46D-02  5.14D-01
 E= -4275.04799508990     Delta-E=       -1.651553547596 Rises=F Damp=F
 DIIS: error= 1.34D-02 at cycle   4 NSaved=   4.
 NSaved= 4 IEnMin= 4 EnMin= -4275.04799508990     IErMin= 4 ErrMin= 1.34D-02
 ErrMax= 1.34D-02  0.00D+00 EMaxC= 1.00D-01 BMatC= 1.51D+00 BMatP= 3.85D+00
 IDIUse=3 WtCom= 8.66D-01 WtEn= 1.34D-01
 Coeff-Com: -0.695D-01 0.156D+00 0.360D+00 0.554D+00
 Coeff-En:   0.000D+00 0.000D+00 0.301D+00 0.699D+00
 Coeff:     -0.602D-01 0.135D+00 0.352D+00 0.573D+00
 Gap=     0.349 Goal=   None    Shift=    0.000
 RMSDP=9.25D-04 MaxDP=2.12D-01 DE=-1.65D+00 OVMax= 1.53D-01

 Cycle   5  Pass 1  IDiag  1:
 RMSU=  6.38D-04    CP:  4.64D-01  1.88D-02  6.12D-01  7.59D-01
 E= -4276.05244146604     Delta-E=       -1.004446376141 Rises=F Damp=F
 DIIS: error= 2.51D-03 at cycle   5 NSaved=   5.
 NSaved= 5 IEnMin= 5 EnMin= -4276.05244146604     IErMin= 5 ErrMin= 2.51D-03
 ErrMax= 2.51D-03  0.00D+00 EMaxC= 1.00D-01 BMatC= 4.80D-02 BMatP= 1.51D+00
 IDIUse=3 WtCom= 9.75D-01 WtEn= 2.51D-02
 Coeff-Com: -0.192D-01 0.239D-01 0.608D-01 0.191D+00 0.743D+00
 Coeff-En:   0.000D+00 0.000D+00 0.000D+00 0.000D+00 0.100D+01
 Coeff:     -0.187D-01 0.233D-01 0.593D-01 0.186D+00 0.750D+00
 Gap=     0.281 Goal=   None    Shift=    0.000
 RMSDP=3.54D-04 MaxDP=1.41D-01 DE=-1.00D+00 OVMax= 4.23D-02

 Cycle   6  Pass 1  IDiag  1:
 RMSU=  2.00D-04    CP:  4.49D-01  1.09D-02  5.80D-01  8.48D-01  9.80D-01
 E= -4276.08122123105     Delta-E=       -0.028779765009 Rises=F Damp=F
 DIIS: error= 1.26D-03 at cycle   6 NSaved=   6.
 NSaved= 6 IEnMin= 6 EnMin= -4276.08122123105     IErMin= 6 ErrMin= 1.26D-03
 ErrMax= 1.26D-03  0.00D+00 EMaxC= 1.00D-01 BMatC= 1.45D-02 BMatP= 4.80D-02
 IDIUse=3 WtCom= 9.87D-01 WtEn= 1.26D-02
 Coeff-Com: -0.728D-02 0.612D-02-0.680D-02 0.150D-01 0.392D+00 0.601D+00
 Coeff-En:   0.000D+00 0.000D+00 0.000D+00 0.000D+00 0.173D+00 0.827D+00
 Coeff:     -0.718D-02 0.605D-02-0.671D-02 0.148D-01 0.390D+00 0.603D+00
 Gap=     0.282 Goal=   None    Shift=    0.000
 RMSDP=8.78D-05 MaxDP=1.55D-02 DE=-2.88D-02 OVMax= 1.18D-02

 Cycle   7  Pass 1  IDiag  1:
 RMSU=  6.45D-05    CP:  4.49D-01  1.15D-02  5.79D-01  8.41D-01  1.06D+00
                    CP:  8.58D-01
 E= -4276.09120165632     Delta-E=       -0.009980425275 Rises=F Damp=F
 DIIS: error= 2.05D-04 at cycle   7 NSaved=   7.
 NSaved= 7 IEnMin= 7 EnMin= -4276.09120165632     IErMin= 7 ErrMin= 2.05D-04
 ErrMax= 2.05D-04  0.00D+00 EMaxC= 1.00D-01 BMatC= 7.32D-04 BMatP= 1.45D-02
 IDIUse=3 WtCom= 9.98D-01 WtEn= 2.05D-03
 Coeff-Com: -0.199D-02 0.196D-02-0.598D-02-0.193D-01 0.759D-01 0.199D+00
 Coeff-Com:  0.751D+00
 Coeff-En:   0.000D+00 0.000D+00 0.000D+00 0.000D+00 0.000D+00 0.000D+00
 Coeff-En:   0.100D+01
 Coeff:     -0.198D-02 0.195D-02-0.596D-02-0.192D-01 0.758D-01 0.198D+00
 Coeff:      0.751D+00
 Gap=     0.283 Goal=   None    Shift=    0.000
 RMSDP=2.78D-05 MaxDP=3.19D-03 DE=-9.98D-03 OVMax= 6.53D-03

 Cycle   8  Pass 1  IDiag  1:
 RMSU=  2.38D-05    CP:  4.48D-01  1.16D-02  5.80D-01  8.39D-01  1.07D+00
                    CP:  8.86D-01  9.96D-01
 E= -4276.09197938883     Delta-E=       -0.000777732508 Rises=F Damp=F
 DIIS: error= 8.93D-05 at cycle   8 NSaved=   8.
 NSaved= 8 IEnMin= 8 EnMin= -4276.09197938883     IErMin= 8 ErrMin= 8.93D-05
 ErrMax= 8.93D-05  0.00D+00 EMaxC= 1.00D-01 BMatC= 6.43D-05 BMatP= 7.32D-04
 IDIUse=1 WtCom= 1.00D+00 WtEn= 0.00D+00
 Coeff-Com:  0.159D-03-0.218D-03-0.165D-02-0.999D-02-0.654D-02 0.140D-01
 Coeff-Com:  0.267D+00 0.737D+00
 Coeff:      0.159D-03-0.218D-03-0.165D-02-0.999D-02-0.654D-02 0.140D-01
 Coeff:      0.267D+00 0.737D+00
 Gap=     0.282 Goal=   None    Shift=    0.000
 RMSDP=1.21D-05 MaxDP=1.40D-03 DE=-7.78D-04 OVMax= 3.24D-03

 Cycle   9  Pass 1  IDiag  1:
 RMSU=  8.73D-06    CP:  4.48D-01  1.17D-02  5.81D-01  8.38D-01  1.08D+00
                    CP:  8.93D-01  1.08D+00  1.14D+00
 E= -4276.09209409226     Delta-E=       -0.000114703431 Rises=F Damp=F
 DIIS: error= 3.59D-05 at cycle   9 NSaved=   9.
 NSaved= 9 IEnMin= 9 EnMin= -4276.09209409226     IErMin= 9 ErrMin= 3.59D-05
 ErrMax= 3.59D-05  0.00D+00 EMaxC= 1.00D-01 BMatC= 1.31D-05 BMatP= 6.43D-05
 IDIUse=1 WtCom= 1.00D+00 WtEn= 0.00D+00
 Coeff-Com:  0.729D-03-0.875D-03-0.600D-05-0.890D-03-0.154D-01-0.265D-01
 Coeff-Com: -0.253D-01 0.293D+00 0.776D+00
 Coeff:      0.729D-03-0.875D-03-0.600D-05-0.890D-03-0.154D-01-0.265D-01
 Coeff:     -0.253D-01 0.293D+00 0.776D+00
 Gap=     0.282 Goal=   None    Shift=    0.000
 RMSDP=5.84D-06 MaxDP=8.38D-04 DE=-1.15D-04 OVMax= 2.28D-03

 Cycle  10  Pass 1  IDiag  1:
 RMSU=  3.81D-06    CP:  4.48D-01  1.17D-02  5.81D-01  8.38D-01  1.08D+00
                    CP:  9.00D-01  1.11D+00  1.28D+00  1.10D+00
 E= -4276.09212213035     Delta-E=       -0.000028038088 Rises=F Damp=F
 DIIS: error= 2.50D-05 at cycle  10 NSaved=  10.
 NSaved=10 IEnMin=10 EnMin= -4276.09212213035     IErMin=10 ErrMin= 2.50D-05
 ErrMax= 2.50D-05  0.00D+00 EMaxC= 1.00D-01 BMatC= 4.01D-06 BMatP= 1.31D-05
 IDIUse=1 WtCom= 1.00D+00 WtEn= 0.00D+00
 Coeff-Com:  0.464D-03-0.594D-03 0.601D-04 0.158D-02-0.393D-02-0.846D-02
 Coeff-Com: -0.527D-01-0.279D-01 0.282D+00 0.809D+00
 Coeff:      0.464D-03-0.594D-03 0.601D-04 0.158D-02-0.393D-02-0.846D-02
 Coeff:     -0.527D-01-0.279D-01 0.282D+00 0.809D+00
 Gap=     0.282 Goal=   None    Shift=    0.000
 RMSDP=2.84D-06 MaxDP=4.59D-04 DE=-2.80D-05 OVMax= 1.20D-03

 Cycle  11  Pass 1  IDiag  1:
 RMSU=  1.83D-06    CP:  4.48D-01  1.17D-02  5.81D-01  8.38D-01  1.08D+00
                    CP:  9.02D-01  1.13D+00  1.30D+00  1.25D+00  1.26D+00
 E= -4276.09212915707     Delta-E=       -0.000007026727 Rises=F Damp=F
 DIIS: error= 6.87D-06 at cycle  11 NSaved=  11.
 NSaved=11 IEnMin=11 EnMin= -4276.09212915707     IErMin=11 ErrMin= 6.87D-06
 ErrMax= 6.87D-06  0.00D+00 EMaxC= 1.00D-01 BMatC= 6.04D-07 BMatP= 4.01D-06
 IDIUse=1 WtCom= 1.00D+00 WtEn= 0.00D+00
 Coeff-Com:  0.391D-04-0.241D-04-0.743D-05 0.473D-03 0.327D-03 0.241D-02
 Coeff-Com: -0.356D-02-0.511D-01-0.913D-01 0.255D+00 0.888D+00
 Coeff:      0.391D-04-0.241D-04-0.743D-05 0.473D-03 0.327D-03 0.241D-02
 Coeff:     -0.356D-02-0.511D-01-0.913D-01 0.255D+00 0.888D+00
 Gap=     0.282 Goal=   None    Shift=    0.000
 RMSDP=1.63D-06 MaxDP=4.34D-04 DE=-7.03D-06 OVMax= 6.42D-04

 Cycle  12  Pass 1  IDiag  1:
 RMSU=  7.75D-07    CP:  4.48D-01  1.17D-02  5.81D-01  8.38D-01  1.08D+00
                    CP:  9.02D-01  1.13D+00  1.31D+00  1.31D+00  1.52D+00
                    CP:  1.22D+00
 E= -4276.09213046643     Delta-E=       -0.000001309360 Rises=F Damp=F
 DIIS: error= 2.56D-06 at cycle  12 NSaved=  12.
 NSaved=12 IEnMin=12 EnMin= -4276.09213046643     IErMin=12 ErrMin= 2.56D-06
 ErrMax= 2.56D-06  0.00D+00 EMaxC= 1.00D-01 BMatC= 9.22D-08 BMatP= 6.04D-07
 IDIUse=1 WtCom= 1.00D+00 WtEn= 0.00D+00
 Coeff-Com: -0.231D-04 0.350D-04 0.196D-04 0.884D-05 0.223D-03 0.965D-03
 Coeff-Com:  0.345D-02-0.114D-01-0.584D-01 0.148D-02 0.330D+00 0.733D+00
 Coeff:     -0.231D-04 0.350D-04 0.196D-04 0.884D-05 0.223D-03 0.965D-03
 Coeff:      0.345D-02-0.114D-01-0.584D-01 0.148D-02 0.330D+00 0.733D+00
 Gap=     0.282 Goal=   None    Shift=    0.000
 RMSDP=5.09D-07 MaxDP=9.36D-05 DE=-1.31D-06 OVMax= 1.83D-04

 Cycle  13  Pass 1  IDiag  1:
 RMSU=  3.42D-07    CP:  4.48D-01  1.17D-02  5.81D-01  8.38D-01  1.08D+00
                    CP:  9.02D-01  1.13D+00  1.32D+00  1.33D+00  1.55D+00
                    CP:  1.33D+00  1.08D+00
 E= -4276.09213063177     Delta-E=       -0.000000165339 Rises=F Damp=F
 DIIS: error= 1.39D-06 at cycle  13 NSaved=  13.
 NSaved=13 IEnMin=13 EnMin= -4276.09213063177     IErMin=13 ErrMin= 1.39D-06
 ErrMax= 1.39D-06  0.00D+00 EMaxC= 1.00D-01 BMatC= 2.11D-08 BMatP= 9.22D-08
 IDIUse=1 WtCom= 1.00D+00 WtEn= 0.00D+00
 Coeff-Com: -0.104D-04 0.118D-04 0.284D-04-0.274D-04 0.200D-04-0.380D-03
 Coeff-Com:  0.169D-03 0.193D-02-0.276D-02-0.256D-01-0.127D-01 0.238D+00
 Coeff-Com:  0.801D+00
 Coeff:     -0.104D-04 0.118D-04 0.284D-04-0.274D-04 0.200D-04-0.380D-03
 Coeff:      0.169D-03 0.193D-02-0.276D-02-0.256D-01-0.127D-01 0.238D+00
 Coeff:      0.801D+00
 Gap=     0.282 Goal=   None    Shift=    0.000
 RMSDP=2.38D-07 MaxDP=6.50D-05 DE=-1.65D-07 OVMax= 9.73D-05

 Cycle  14  Pass 1  IDiag  1:
 RMSU=  1.45D-07    CP:  4.48D-01  1.17D-02  5.81D-01  8.38D-01  1.08D+00
                    CP:  9.02D-01  1.13D+00  1.32D+00  1.33D+00  1.57D+00
                    CP:  1.35D+00  1.19D+00  1.18D+00
 E= -4276.09213067179     Delta-E=       -0.000000040014 Rises=F Damp=F
 DIIS: error= 6.70D-07 at cycle  14 NSaved=  14.
 NSaved=14 IEnMin=14 EnMin= -4276.09213067179     IErMin=14 ErrMin= 6.70D-07
 ErrMax= 6.70D-07  0.00D+00 EMaxC= 1.00D-01 BMatC= 4.76D-09 BMatP= 2.11D-08
 IDIUse=1 WtCom= 1.00D+00 WtEn= 0.00D+00
 Coeff-Com: -0.323D-06-0.505D-06 0.931D-05-0.121D-04 0.323D-04-0.362D-03
 Coeff-Com: -0.938D-03 0.234D-02 0.124D-01-0.103D-01-0.843D-01-0.953D-01
 Coeff-Com:  0.327D+00 0.850D+00
 Coeff:     -0.323D-06-0.505D-06 0.931D-05-0.121D-04 0.323D-04-0.362D-03
 Coeff:     -0.938D-03 0.234D-02 0.124D-01-0.103D-01-0.843D-01-0.953D-01
 Coeff:      0.327D+00 0.850D+00
 Gap=     0.282 Goal=   None    Shift=    0.000
 RMSDP=1.56D-07 MaxDP=3.06D-05 DE=-4.00D-08 OVMax= 6.23D-05

 Cycle  15  Pass 1  IDiag  1:
 RMSU=  6.86D-08    CP:  4.48D-01  1.17D-02  5.81D-01  8.38D-01  1.08D+00
                    CP:  9.01D-01  1.13D+00  1.32D+00  1.34D+00  1.57D+00
                    CP:  1.37D+00  1.26D+00  1.40D+00  1.26D+00
 E= -4276.09213068236     Delta-E=       -0.000000010572 Rises=F Damp=F
 DIIS: error= 2.22D-07 at cycle  15 NSaved=  15.
 NSaved=15 IEnMin=15 EnMin= -4276.09213068236     IErMin=15 ErrMin= 2.22D-07
 ErrMax= 2.22D-07  0.00D+00 EMaxC= 1.00D-01 BMatC= 5.96D-10 BMatP= 4.76D-09
 IDIUse=1 WtCom= 1.00D+00 WtEn= 0.00D+00
 Coeff-Com: -0.217D-07-0.364D-06-0.213D-05-0.351D-05 0.670D-04 0.189D-04
 Coeff-Com: -0.110D-03 0.310D-03 0.320D-02-0.225D-02-0.262D-01-0.631D-01
 Coeff-Com:  0.230D-01 0.306D+00 0.759D+00
 Coeff:     -0.217D-07-0.364D-06-0.213D-05-0.351D-05 0.670D-04 0.189D-04
 Coeff:     -0.110D-03 0.310D-03 0.320D-02-0.225D-02-0.262D-01-0.631D-01
 Coeff:      0.230D-01 0.306D+00 0.759D+00
 Gap=     0.282 Goal=   None    Shift=    0.000
 RMSDP=6.14D-08 MaxDP=6.20D-06 DE=-1.06D-08 OVMax= 1.94D-05

 Cycle  16  Pass 1  IDiag  1:
 RMSU=  4.60D-08    CP:  4.48D-01  1.17D-02  5.81D-01  8.38D-01  1.08D+00
                    CP:  9.01D-01  1.13D+00  1.32D+00  1.34D+00  1.58D+00
                    CP:  1.38D+00  1.27D+00  1.46D+00  1.40D+00  1.29D+00
 E= -4276.09213068541     Delta-E=       -0.000000003052 Rises=F Damp=F
 DIIS: error= 1.09D-07 at cycle  16 NSaved=  16.
 NSaved=16 IEnMin=16 EnMin= -4276.09213068541     IErMin=16 ErrMin= 1.09D-07
 ErrMax= 1.09D-07  0.00D+00 EMaxC= 1.00D-01 BMatC= 1.08D-10 BMatP= 5.96D-10
 IDIUse=1 WtCom= 1.00D+00 WtEn= 0.00D+00
 Coeff-Com: -0.274D-06 0.330D-06-0.209D-05 0.456D-07 0.598D-05 0.360D-04
 Coeff-Com:  0.103D-03-0.166D-04-0.421D-03 0.151D-03 0.155D-02-0.910D-02
 Coeff-Com: -0.344D-01-0.236D-01 0.271D+00 0.795D+00
 Coeff:     -0.274D-06 0.330D-06-0.209D-05 0.456D-07 0.598D-05 0.360D-04
 Coeff:      0.103D-03-0.166D-04-0.421D-03 0.151D-03 0.155D-02-0.910D-02
 Coeff:     -0.344D-01-0.236D-01 0.271D+00 0.795D+00
 Gap=     0.282 Goal=   None    Shift=    0.000
 RMSDP=6.08D-08 MaxDP=6.16D-06 DE=-3.05D-09 OVMax= 6.73D-06

 Cycle  17  Pass 1  IDiag  1:
 RMSU=  4.39D-08    CP:  4.48D-01  1.17D-02  5.81D-01  8.38D-01  1.08D+00
                    CP:  9.01D-01  1.13D+00  1.32D+00  1.34D+00  1.57D+00
                    CP:  1.38D+00  1.27D+00  1.47D+00  1.48D+00  1.61D+00
                    CP:  1.71D+00
 E= -4276.09213068353     Delta-E=        0.000000001881 Rises=F Damp=F
 DIIS: error= 3.66D-08 at cycle  17 NSaved=  17.
 NSaved=17 IEnMin=16 EnMin= -4276.09213068541     IErMin=17 ErrMin= 3.66D-08
 ErrMax= 3.66D-08  0.00D+00 EMaxC= 1.00D-01 BMatC= 2.26D-11 BMatP= 1.08D-10
 IDIUse=1 WtCom= 1.00D+00 WtEn= 0.00D+00
 Coeff-Com: -0.120D-06 0.167D-06-0.280D-06 0.105D-05-0.187D-04-0.634D-05
 Coeff-Com:  0.347D-04 0.226D-04-0.518D-03 0.563D-03 0.502D-02 0.813D-02
 Coeff-Com: -0.179D-01-0.692D-01-0.496D-01 0.299D+00 0.824D+00
 Coeff:     -0.120D-06 0.167D-06-0.280D-06 0.105D-05-0.187D-04-0.634D-05
 Coeff:      0.347D-04 0.226D-04-0.518D-03 0.563D-03 0.502D-02 0.813D-02
 Coeff:     -0.179D-01-0.692D-01-0.496D-01 0.299D+00 0.824D+00
 Gap=     0.282 Goal=   None    Shift=    0.000
 RMSDP=9.03D-08 MaxDP=8.21D-06 DE= 1.88D-09 OVMax= 2.76D-06

 Cycle  18  Pass 1  IDiag  1:
 RMSU=  4.59D-08    CP:  4.48D-01  1.17D-02  5.81D-01  8.38D-01  1.08D+00
                    CP:  9.01D-01  1.13D+00  1.32D+00  1.34D+00  1.57D+00
                    CP:  1.38D+00  1.27D+00  1.48D+00  1.54D+00  1.96D+00
                    CP:  2.77D+00  2.20D+00
 E= -4276.09213068381     Delta-E=       -0.000000000284 Rises=F Damp=F
 DIIS: error= 4.99D-08 at cycle  18 NSaved=  18.
 NSaved=18 IEnMin=16 EnMin= -4276.09213068541     IErMin=17 ErrMin= 3.66D-08
 ErrMax= 4.99D-08  0.00D+00 EMaxC= 1.00D-01 BMatC= 7.05D-12 BMatP= 2.26D-11
 IDIUse=1 WtCom= 1.00D+00 WtEn= 0.00D+00
 Coeff-Com: -0.918D-07 0.123D-06 0.162D-06 0.643D-06-0.105D-04-0.104D-04
 Coeff-Com: -0.717D-05 0.212D-04-0.119D-03 0.316D-03 0.202D-02 0.429D-02
 Coeff-Com: -0.473D-02-0.270D-01-0.549D-01 0.366D-01 0.391D+00 0.652D+00
 Coeff:     -0.918D-07 0.123D-06 0.162D-06 0.643D-06-0.105D-04-0.104D-04
 Coeff:     -0.717D-05 0.212D-04-0.119D-03 0.316D-03 0.202D-02 0.429D-02
 Coeff:     -0.473D-02-0.270D-01-0.549D-01 0.366D-01 0.391D+00 0.652D+00
 Gap=     0.282 Goal=   None    Shift=    0.000
 RMSDP=1.11D-07 MaxDP=9.58D-06 DE=-2.84D-10 OVMax= 9.25D-07

 Cycle  19  Pass 1  IDiag  1:
 RMSU=  5.86D-08    CP:  4.48D-01  1.17D-02  5.81D-01  8.38D-01  1.08D+00
                    CP:  9.01D-01  1.13D+00  1.32D+00  1.34D+00  1.57D+00
                    CP:  1.38D+00  1.27D+00  1.48D+00  1.60D+00  2.30D+00
                    CP:  3.00D+00  3.00D+00  2.31D+00
 E= -4276.09213068485     Delta-E=       -0.000000001040 Rises=F Damp=F
 DIIS: error= 6.43D-08 at cycle  19 NSaved=  19.
 NSaved=19 IEnMin=16 EnMin= -4276.09213068541     IErMin=17 ErrMin= 3.66D-08
 ErrMax= 6.43D-08  0.00D+00 EMaxC= 1.00D-01 BMatC= 5.20D-12 BMatP= 7.05D-12
 IDIUse=1 WtCom= 1.00D+00 WtEn= 0.00D+00
 Coeff-Com: -0.767D-07 0.104D-06 0.132D-06 0.556D-06-0.884D-05-0.878D-05
 Coeff-Com: -0.668D-05 0.175D-04-0.969D-04 0.274D-03 0.170D-02 0.350D-02
 Coeff-Com: -0.421D-02-0.226D-01-0.444D-01 0.339D-01 0.324D+00 0.517D+00
 Coeff-Com:  0.191D+00
 Coeff:     -0.767D-07 0.104D-06 0.132D-06 0.556D-06-0.884D-05-0.878D-05
 Coeff:     -0.668D-05 0.175D-04-0.969D-04 0.274D-03 0.170D-02 0.350D-02
 Coeff:     -0.421D-02-0.226D-01-0.444D-01 0.339D-01 0.324D+00 0.517D+00
 Coeff:      0.191D+00
 Gap=     0.282 Goal=   None    Shift=    0.000
 RMSDP=3.57D-08 MaxDP=3.46D-06 DE=-1.04D-09 OVMax= 8.44D-08

 Cycle  20  Pass 1  IDiag  1:
 RMSU=  1.31D-08    CP:  4.48D-01  1.17D-02  5.81D-01  8.38D-01  1.08D+00
                    CP:  9.01D-01  1.13D+00  1.32D+00  1.34D+00  1.57D+00
                    CP:  1.38D+00  1.26D+00  1.48D+00  1.62D+00  2.41D+00
                    CP:  3.00D+00  3.00D+00  2.76D+00  1.41D+00
 E= -4276.09213068400     Delta-E=        0.000000000859 Rises=F Damp=F
 DIIS: error= 6.51D-08 at cycle  20 NSaved=  20.
 NSaved=20 IEnMin=16 EnMin= -4276.09213068541     IErMin=17 ErrMin= 3.66D-08
 ErrMax= 6.51D-08  0.00D+00 EMaxC= 1.00D-01 BMatC= 5.66D-12 BMatP= 5.20D-12
 IDIUse=1 WtCom= 1.00D+00 WtEn= 0.00D+00
 Coeff-Com: -0.769D-07 0.104D-06 0.132D-06 0.557D-06-0.887D-05-0.877D-05
 Coeff-Com: -0.654D-05 0.175D-04-0.982D-04 0.274D-03 0.171D-02 0.352D-02
 Coeff-Com: -0.424D-02-0.228D-01-0.445D-01 0.343D-01 0.326D+00 0.516D+00
 Coeff-Com:  0.143D+00 0.471D-01
 Coeff:     -0.769D-07 0.104D-06 0.132D-06 0.557D-06-0.887D-05-0.877D-05
 Coeff:     -0.654D-05 0.175D-04-0.982D-04 0.274D-03 0.171D-02 0.352D-02
 Coeff:     -0.424D-02-0.228D-01-0.445D-01 0.343D-01 0.326D+00 0.516D+00
 Coeff:      0.143D+00 0.471D-01
 Gap=     0.282 Goal=   None    Shift=    0.000
 RMSDP=2.57D-09 MaxDP=3.12D-07 DE= 8.59D-10 OVMax= 2.12D-09

 Error on total polarization charges =  0.06038
 SCF Done:  E(RwB97XD) =  -4276.09213068     A.U. after   20 cycles
            NFock= 20  Conv=0.26D-08     -V/T= 2.0229
 KE= 4.180350649990D+03 PE=-3.463573425849D+04 EE= 1.387469617997D+04
 SMD-CDS (non-electrostatic) energy       (kcal/mol) =     -12.99
 (included in total energy above)
 Leave Link  502 at Sat Apr  6 23:09:25 2024, MaxMem=  2147483648 cpu:     90285.8
 (Enter /cluster/apps/gaussian/g09/l601.exe)
 Copying SCF densities to generalized density rwf, IOpCl= 0 IROHF=0.

 **********************************************************************

            Population analysis using the SCF density.

 **********************************************************************

 Orbital symmetries:
       Occupied  (A) (A) (A) (A) (A) (A) (A) (A) (A) (A) (A) (A)
                 (A) (A) (A) (A) (A) (A) (A) (A) (A) (A) (A) (A)
                 (A) (A) (A) (A) (A) (A) (A) (A) (A) (A) (A) (A)
                 (A) (A) (A) (A) (A) (A) (A) (A) (A) (A) (A) (A)
                 (A) (A) (A) (A) (A) (A) (A) (A) (A) (A) (A) (A)
                 (A) (A) (A) (A) (A) (A) (A) (A) (A) (A) (A) (A)
                 (A) (A) (A) (A) (A) (A) (A) (A) (A) (A) (A) (A)
                 (A) (A) (A) (A) (A) (A) (A) (A) (A) (A) (A) (A)
                 (A) (A) (A) (A) (A) (A) (A) (A) (A) (A) (A) (A)
                 (A) (A) (A) (A) (A) (A) (A) (A) (A) (A) (A) (A)
                 (A) (A) (A) (A) (A) (A) (A) (A) (A) (A) (A) (A)
                 (A) (A) (A) (A) (A) (A) (A) (A) (A) (A) (A) (A)
                 (A) (A) (A) (A) (A) (A) (A) (A) (A) (A) (A) (A)
                 (A) (A) (A) (A) (A) (A) (A) (A) (A) (A) (A) (A)
                 (A) (A) (A) (A) (A) (A) (A) (A) (A) (A) (A) (A)
                 (A) (A) (A) (A) (A) (A) (A) (A) (A) (A) (A) (A)
                 (A) (A) (A) (A) (A) (A) (A) (A) (A) (A) (A) (A)
                 (A) (A) (A) (A) (A) (A) (A) (A) (A) (A) (A) (A)
                 (A) (A) (A) (A) (A) (A) (A) (A) (A) (A) (A) (A)
                 (A) (A) (A) (A) (A) (A) (A) (A) (A) (A) (A) (A)
                 (A) (A)
       Virtual   (A) (A) (A) (A) (A) (A) (A) (A) (A) (A) (A) (A)
                 (A) (A) (A) (A) (A) (A) (A) (A) (A) (A) (A) (A)
                 (A) (A) (A) (A) (A) (A) (A) (A) (A) (A) (A) (A)
                 (A) (A) (A) (A) (A) (A) (A) (A) (A) (A) (A) (A)
                 (A) (A) (A) (A) (A) (A) (A) (A) (A) (A) (A) (A)
                 (A) (A) (A) (A) (A) (A) (A) (A) (A) (A) (A) (A)
                 (A) (A) (A) (A) (A) (A) (A) (A) (A) (A) (A) (A)
                 (A) (A) (A) (A) (A) (A) (A) (A) (A) (A) (A) (A)
                 (A) (A) (A) (A) (A) (A) (A) (A) (A) (A) (A) (A)
                 (A) (A) (A) (A) (A) (A) (A) (A) (A) (A) (A) (A)
                 (A) (A) (A) (A) (A) (A) (A) (A) (A) (A) (A) (A)
                 (A) (A) (A) (A) (A) (A) (A) (A) (A) (A) (A) (A)
                 (A) (A) (A) (A) (A) (A) (A) (A) (A) (A) (A) (A)
                 (A) (A) (A) (A) (A) (A) (A) (A) (A) (A) (A) (A)
                 (A) (A) (A) (A) (A) (A) (A) (A) (A) (A) (A) (A)
                 (A) (A) (A) (A) (A) (A) (A) (A) (A) (A) (A) (A)
                 (A) (A) (A) (A) (A) (A) (A) (A) (A) (A) (A) (A)
                 (A) (A) (A) (A) (A) (A) (A) (A) (A) (A) (A) (A)
                 (A) (A) (A) (A) (A) (A) (A) (A) (A) (A) (A) (A)
                 (A) (A) (A) (A) (A) (A) (A) (A) (A) (A) (A) (A)
                 (A) (A) (A) (A) (A) (A) (A) (A) (A) (A) (A) (A)
                 (A) (A) (A) (A) (A) (A) (A) (A) (A) (A) (A) (A)
                 (A) (A) (A) (A) (A) (A) (A) (A) (A) (A) (A) (A)
                 (A) (A) (A) (A) (A) (A) (A) (A) (A) (A) (A) (A)
                 (A) (A) (A) (A) (A) (A) (A) (A) (A) (A) (A) (A)
                 (A) (A) (A) (A) (A) (A) (A) (A) (A) (A) (A) (A)
                 (A) (A) (A) (A) (A) (A) (A) (A) (A) (A) (A) (A)
                 (A) (A) (A) (A) (A) (A) (A) (A) (A) (A) (A) (A)
                 (A) (A) (A) (A) (A) (A) (A) (A) (A) (A) (A) (A)
                 (A) (A) (A) (A) (A) (A) (A) (A) (A) (A) (A) (A)
                 (A) (A) (A) (A) (A) (A) (A) (A) (A) (A) (A) (A)
                 (A) (A) (A) (A) (A) (A) (A) (A) (A) (A) (A) (A)
                 (A) (A) (A) (A) (A) (A) (A) (A) (A) (A) (A) (A)
                 (A) (A) (A) (A) (A) (A) (A) (A) (A) (A) (A) (A)
                 (A) (A) (A) (A) (A) (A) (A) (A) (A) (A) (A) (A)
                 (A) (A) (A) (A) (A) (A) (A) (A) (A) (A) (A) (A)
                 (A) (A) (A) (A) (A) (A) (A) (A) (A) (A) (A) (A)
                 (A) (A) (A) (A) (A) (A) (A) (A) (A) (A) (A) (A)
                 (A) (A) (A) (A) (A) (A) (A) (A) (A) (A) (A) (A)
                 (A) (A) (A) (A) (A) (A) (A) (A) (A) (A) (A) (A)
                 (A) (A) (A) (A) (A) (A) (A) (A) (A) (A) (A) (A)
                 (A) (A) (A) (A) (A) (A) (A) (A) (A) (A) (A) (A)
                 (A) (A) (A) (A) (A) (A) (A) (A) (A) (A) (A) (A)
                 (A) (A) (A) (A) (A) (A) (A) (A) (A) (A) (A) (A)
                 (A) (A) (A) (A) (A) (A) (A) (A) (A) (A) (A) (A)
                 (A) (A) (A) (A) (A) (A) (A) (A) (A) (A) (A) (A)
                 (A) (A) (A) (A) (A) (A) (A) (A) (A) (A) (A) (A)
                 (A) (A) (A) (A) (A) (A) (A) (A) (A) (A) (A) (A)
                 (A) (A) (A) (A) (A) (A) (A) (A) (A) (A) (A) (A)
                 (A) (A) (A) (A) (A) (A) (A) (A) (A) (A) (A) (A)
                 (A) (A) (A) (A) (A) (A) (A) (A) (A) (A) (A) (A)
                 (A) (A) (A) (A) (A) (A) (A) (A) (A) (A) (A) (A)
                 (A) (A) (A) (A) (A) (A) (A) (A) (A) (A) (A) (A)
                 (A) (A) (A) (A) (A) (A) (A) (A) (A) (A) (A) (A)
                 (A) (A) (A) (A) (A) (A) (A) (A) (A) (A) (A) (A)
                 (A) (A) (A) (A) (A) (A) (A) (A) (A) (A) (A) (A)
                 (A) (A) (A) (A) (A) (A) (A) (A) (A) (A) (A) (A)
                 (A) (A) (A) (A) (A) (A) (A) (A) (A) (A) (A) (A)
                 (A) (A) (A) (A) (A) (A) (A) (A) (A) (A) (A) (A)
                 (A) (A) (A) (A) (A) (A) (A) (A) (A) (A) (A) (A)
                 (A) (A) (A) (A) (A) (A) (A) (A) (A) (A) (A) (A)
                 (A) (A) (A) (A) (A) (A) (A) (A) (A) (A) (A) (A)
                 (A) (A) (A) (A) (A) (A) (A) (A) (A) (A) (A) (A)
                 (A) (A) (A) (A) (A) (A) (A) (A) (A) (A) (A) (A)
                 (A) (A) (A) (A) (A) (A) (A) (A) (A) (A) (A) (A)
                 (A) (A) (A) (A) (A) (A) (A) (A) (A) (A) (A) (A)
                 (A) (A) (A) (A) (A) (A) (A) (A) (A) (A) (A) (A)
                 (A) (A) (A) (A) (A) (A) (A) (A) (A) (A) (A) (A)
                 (A) (A) (A) (A) (A) (A) (A) (A) (A) (A) (A) (A)
                 (A) (A) (A) (A) (A) (A) (A) (A) (A) (A) (A) (A)
                 (A) (A) (A) (A) (A) (A) (A) (A) (A) (A) (A) (A)
                 (A) (A) (A) (A) (A) (A) (A) (A) (A) (A) (A) (A)
                 (A) (A) (A) (A) (A) (A) (A) (A) (A) (A) (A) (A)
                 (A) (A) (A) (A) (A) (A) (A) (A) (A) (A) (A) (A)
                 (A) (A) (A) (A) (A) (A) (A) (A) (A) (A) (A) (A)
                 (A) (A) (A) (A) (A) (A) (A) (A) (A) (A) (A) (A)
                 (A) (A) (A) (A) (A) (A) (A) (A) (A) (A) (A) (A)
                 (A) (A) (A) (A) (A) (A) (A) (A) (A) (A) (A) (A)
                 (A) (A) (A) (A) (A) (A) (A) (A) (A) (A) (A) (A)
                 (A) (A) (A) (A) (A) (A) (A) (A) (A) (A) (A) (A)
                 (A) (A) (A) (A) (A) (A) (A) (A) (A) (A) (A) (A)
                 (A) (A) (A) (A) (A) (A) (A) (A) (A) (A) (A) (A)
                 (A) (A) (A) (A) (A) (A) (A) (A) (A) (A) (A) (A)
                 (A) (A) (A) (A) (A) (A) (A) (A) (A) (A) (A) (A)
                 (A) (A) (A) (A) (A) (A) (A) (A) (A) (A) (A) (A)
                 (A) (A) (A) (A) (A) (A) (A) (A) (A) (A) (A) (A)
                 (A) (A) (A) (A) (A) (A) (A) (A) (A) (A) (A) (A)
                 (A) (A) (A) (A) (A) (A) (A) (A) (A) (A) (A) (A)
                 (A) (A) (A) (A) (A) (A) (A) (A) (A) (A) (A) (A)
                 (A) (A) (A) (A) (A) (A) (A) (A) (A) (A) (A) (A)
                 (A) (A) (A) (A) (A) (A) (A) (A) (A) (A) (A) (A)
                 (A) (A) (A) (A) (A) (A) (A) (A) (A) (A) (A) (A)
                 (A) (A) (A) (A) (A) (A) (A) (A) (A) (A) (A) (A)
                 (A) (A) (A) (A) (A) (A) (A) (A) (A) (A) (A) (A)
                 (A) (A) (A) (A) (A) (A) (A) (A) (A) (A) (A) (A)
                 (A) (A) (A) (A) (A) (A) (A) (A) (A) (A) (A) (A)
                 (A) (A) (A) (A) (A) (A) (A) (A) (A) (A) (A) (A)
                 (A) (A) (A) (A) (A) (A) (A) (A) (A) (A) (A) (A)
                 (A) (A) (A) (A) (A) (A) (A) (A) (A) (A) (A) (A)
                 (A) (A) (A) (A) (A) (A) (A) (A) (A) (A) (A) (A)
                 (A) (A) (A) (A) (A) (A) (A) (A) (A) (A) (A) (A)
                 (A) (A) (A) (A) (A) (A) (A) (A) (A) (A) (A) (A)
                 (A) (A) (A) (A) (A) (A) (A) (A) (A) (A) (A) (A)
                 (A) (A) (A) (A) (A) (A) (A) (A) (A) (A) (A) (A)
                 (A) (A) (A) (A) (A) (A) (A) (A) (A) (A) (A) (A)
                 (A) (A) (A) (A) (A) (A) (A) (A) (A) (A) (A) (A)
                 (A) (A) (A) (A) (A) (A) (A) (A) (A) (A) (A) (A)
                 (A) (A) (A) (A) (A) (A) (A) (A) (A) (A) (A) (A)
                 (A) (A) (A) (A) (A) (A) (A) (A) (A) (A) (A) (A)
                 (A) (A) (A) (A) (A) (A) (A) (A) (A) (A) (A) (A)
                 (A) (A) (A) (A) (A) (A) (A) (A) (A) (A) (A) (A)
                 (A) (A) (A) (A) (A) (A) (A) (A) (A) (A) (A) (A)
                 (A) (A) (A) (A) (A) (A) (A) (A) (A) (A) (A) (A)
                 (A) (A) (A) (A) (A) (A) (A) (A) (A) (A) (A) (A)
                 (A) (A) (A) (A) (A) (A) (A) (A) (A) (A) (A) (A)
                 (A) (A) (A) (A) (A) (A) (A) (A) (A) (A) (A) (A)
                 (A) (A) (A) (A) (A) (A) (A) (A) (A) (A) (A) (A)
                 (A) (A) (A) (A) (A) (A) (A) (A) (A) (A) (A) (A)
                 (A) (A) (A) (A) (A) (A) (A) (A) (A) (A) (A) (A)
                 (A) (A) (A) (A) (A) (A) (A) (A) (A) (A) (A) (A)
                 (A) (A) (A) (A) (A) (A) (A) (A) (A) (A) (A) (A)
                 (A) (A) (A) (A) (A) (A) (A) (A) (A) (A) (A) (A)
                 (A) (A) (A) (A) (A) (A) (A) (A) (A) (A) (A) (A)
                 (A) (A) (A) (A) (A) (A) (A) (A) (A) (A) (A) (A)
                 (A) (A) (A) (A) (A) (A) (A) (A) (A) (A) (A) (A)
                 (A) (A) (A) (A) (A) (A) (A) (A) (A) (A) (A) (A)
                 (A) (A) (A) (A) (A) (A) (A) (A) (A) (A) (A) (A)
                 (A) (A) (A) (A) (A) (A) (A) (A) (A) (A) (A) (A)
                 (A) (A) (A) (A) (A) (A) (A) (A) (A) (A) (A) (A)
                 (A) (A) (A) (A) (A) (A) (A) (A) (A) (A) (A) (A)
                 (A) (A) (A) (A) (A) (A) (A) (A) (A) (A) (A) (A)
                 (A) (A) (A) (A) (A) (A) (A) (A) (A) (A) (A) (A)
                 (A) (A) (A) (A) (A) (A) (A) (A) (A) (A) (A) (A)
                 (A) (A) (A) (A) (A) (A) (A) (A) (A) (A) (A) (A)
                 (A) (A) (A) (A) (A) (A) (A) (A) (A) (A) (A) (A)
                 (A) (A) (A) (A) (A) (A) (A) (A) (A) (A) (A) (A)
                 (A) (A) (A) (A) (A) (A) (A) (A) (A) (A) (A) (A)
                 (A) (A) (A) (A) (A) (A) (A) (A) (A) (A) (A) (A)
                 (A) (A) (A) (A) (A) (A) (A) (A) (A) (A) (A) (A)
                 (A) (A) (A) (A) (A) (A) (A) (A) (A) (A) (A) (A)
                 (A) (A) (A) (A) (A) (A) (A) (A) (A) (A) (A) (A)
                 (A) (A) (A) (A) (A) (A) (A) (A) (A) (A) (A) (A)
                 (A) (A) (A) (A) (A) (A) (A) (A) (A) (A) (A) (A)
                 (A) (A) (A) (A) (A) (A) (A) (A) (A) (A) (A) (A)
                 (A) (A) (A) (A) (A) (A) (A) (A) (A) (A) (A) (A)
                 (A) (A) (A) (A) (A) (A) (A) (A) (A) (A) (A) (A)
                 (A) (A) (A) (A) (A) (A) (A) (A) (A) (A) (A) (A)
                 (A) (A) (A) (A) (A) (A) (A) (A) (A) (A) (A) (A)
                 (A) (A) (A) (A) (A) (A) (A) (A) (A) (A) (A) (A)
                 (A) (A) (A) (A) (A) (A) (A) (A) (A) (A) (A) (A)
                 (A) (A) (A) (A) (A) (A) (A) (A) (A) (A) (A) (A)
                 (A) (A) (A) (A) (A) (A) (A) (A) (A) (A) (A) (A)
                 (A) (A) (A) (A) (A) (A) (A) (A) (A) (A) (A) (A)
                 (A) (A) (A) (A) (A) (A) (A) (A) (A) (A) (A) (A)
                 (A) (A) (A) (A) (A) (A) (A) (A) (A) (A) (A) (A)
                 (A) (A) (A) (A) (A) (A) (A) (A) (A) (A) (A) (A)
                 (A) (A) (A) (A) (A) (A) (A) (A) (A) (A) (A) (A)
                 (A) (A) (A) (A) (A) (A) (A) (A) (A) (A) (A) (A)
                 (A) (A) (A) (A) (A) (A) (A) (A) (A) (A) (A) (A)
                 (A) (A) (A) (A) (A) (A) (A) (A) (A) (A) (A) (A)
                 (A) (A) (A) (A) (A) (A) (A) (A) (A) (A) (A) (A)
                 (A) (A) (A) (A) (A) (A) (A) (A) (A) (A) (A) (A)
                 (A) (A) (A) (A) (A) (A) (A) (A) (A) (A) (A) (A)
                 (A) (A) (A) (A)
 The electronic state is 1-A.
 Alpha  occ. eigenvalues -- -101.69564 -89.20949 -77.26287 -77.24928 -24.84370
 Alpha  occ. eigenvalues --  -24.84274 -24.83677 -24.82955 -19.27677 -19.23181
 Alpha  occ. eigenvalues --  -19.23041 -14.43251 -10.39016 -10.38778 -10.38630
 Alpha  occ. eigenvalues --  -10.37999 -10.35696 -10.34458 -10.34129 -10.32408
 Alpha  occ. eigenvalues --  -10.31675 -10.31623 -10.31363 -10.31171 -10.31048
 Alpha  occ. eigenvalues --  -10.30869 -10.30771 -10.30300 -10.30293 -10.30066
 Alpha  occ. eigenvalues --  -10.29990 -10.29954 -10.29953 -10.29844 -10.29713
 Alpha  occ. eigenvalues --  -10.29706 -10.29640 -10.29621 -10.29613 -10.29549
 Alpha  occ. eigenvalues --  -10.29515 -10.29506 -10.29500 -10.29474 -10.29409
 Alpha  occ. eigenvalues --  -10.29401 -10.29353 -10.29346 -10.29341 -10.29274
 Alpha  occ. eigenvalues --  -10.29264 -10.29211 -10.29000 -10.29000 -10.28994
 Alpha  occ. eigenvalues --  -10.28942 -10.28825 -10.28761 -10.28123 -10.27921
 Alpha  occ. eigenvalues --  -10.27862 -10.27719  -9.58127  -8.21027  -7.32784
 Alpha  occ. eigenvalues --   -7.31912  -7.31865  -6.70669  -6.69380  -6.15869
 Alpha  occ. eigenvalues --   -6.15794  -6.15752  -4.85366  -4.85337  -4.85063
 Alpha  occ. eigenvalues --   -4.84084  -4.84054  -4.83728  -3.58387  -2.26860
 Alpha  occ. eigenvalues --   -2.26569  -2.23621  -1.36816  -1.35820  -1.34726
 Alpha  occ. eigenvalues --   -1.34352  -1.20048  -1.17197  -1.09157  -1.02389
 Alpha  occ. eigenvalues --   -0.98870  -0.97038  -0.96995  -0.96561  -0.96373
 Alpha  occ. eigenvalues --   -0.96336  -0.95915  -0.95791  -0.94959  -0.89235
 Alpha  occ. eigenvalues --   -0.88849  -0.88512  -0.88005  -0.85791  -0.85712
 Alpha  occ. eigenvalues --   -0.85299  -0.85076  -0.85007  -0.84848  -0.84769
 Alpha  occ. eigenvalues --   -0.84552  -0.84387  -0.84012  -0.83400  -0.82891
 Alpha  occ. eigenvalues --   -0.80484  -0.78278  -0.76740  -0.75547  -0.75258
 Alpha  occ. eigenvalues --   -0.74938  -0.72752  -0.71147  -0.70760  -0.70402
 Alpha  occ. eigenvalues --   -0.70300  -0.70104  -0.69934  -0.69684  -0.69490
 Alpha  occ. eigenvalues --   -0.69285  -0.69024  -0.68399  -0.68007  -0.66402
 Alpha  occ. eigenvalues --   -0.66342  -0.65914  -0.65074  -0.64350  -0.62877
 Alpha  occ. eigenvalues --   -0.62034  -0.61685  -0.61554  -0.61318  -0.61053
 Alpha  occ. eigenvalues --   -0.60837  -0.60142  -0.59556  -0.59240  -0.58227
 Alpha  occ. eigenvalues --   -0.57999  -0.57431  -0.56987  -0.56596  -0.56151
 Alpha  occ. eigenvalues --   -0.55818  -0.55695  -0.55342  -0.55296  -0.55175
 Alpha  occ. eigenvalues --   -0.54919  -0.54693  -0.54399  -0.54325  -0.54129
 Alpha  occ. eigenvalues --   -0.54072  -0.53727  -0.53651  -0.53590  -0.53376
[...]
 Alpha virt. eigenvalues --    3.52624   3.52866   3.53056   3.53181   3.53241
 Alpha virt. eigenvalues --    3.53447   3.53671   3.53840   3.54013   3.54358
 Alpha virt. eigenvalues --    3.54437   3.54733   3.55096   3.55489   3.55707
 Alpha virt. eigenvalues --    3.55759   3.56018   3.56150   3.56351   3.56564
 Alpha virt. eigenvalues --    3.56790   3.57067   3.57317   3.57574   3.57741
 Alpha virt. eigenvalues --    3.57869   3.58054   3.58267   3.58573   3.58829
 Alpha virt. eigenvalues --    3.59184   3.59453   3.59574   3.59927   3.59969
 Alpha virt. eigenvalues --    3.60145   3.60196   3.60437   3.60768   3.60815
 Alpha virt. eigenvalues --    3.61162   3.61233   3.61639   3.61785   3.62031
 Alpha virt. eigenvalues --    3.62271   3.62612   3.62895   3.63177   3.63348
 Alpha virt. eigenvalues --    3.63493   3.63723   3.63787   3.64322   3.64414
 Alpha virt. eigenvalues --    3.64683   3.64783   3.65305   3.65422   3.65973
 Alpha virt. eigenvalues --    3.66016   3.66211   3.66772   3.66942   3.67090
 Alpha virt. eigenvalues --    3.67280   3.67551   3.67838   3.68181   3.68402
 Alpha virt. eigenvalues --    3.68607   3.68791   3.69000   3.69614   3.69962
 Alpha virt. eigenvalues --    3.70285   3.70622   3.71080   3.71229   3.71760
 Alpha virt. eigenvalues --    3.72279   3.72481   3.72905   3.73018   3.73317
 Alpha virt. eigenvalues --    3.73858   3.74108   3.74517   3.74925   3.75081
 Alpha virt. eigenvalues --    3.75628   3.76045   3.76230   3.76660   3.76855
 Alpha virt. eigenvalues --    3.77271   3.77789   3.78040   3.78335   3.78545
 Alpha virt. eigenvalues --    3.78924   3.79204   3.79855   3.79906   3.80468
 Alpha virt. eigenvalues --    3.80479   3.81269   3.81492   3.81730   3.82265
 Alpha virt. eigenvalues --    3.82462   3.82618   3.82715   3.83462   3.83951
 Alpha virt. eigenvalues --    3.84603   3.84708   3.85471   3.85509   3.85802
 Alpha virt. eigenvalues --    3.86288   3.86390   3.87171   3.87248   3.87955
 Alpha virt. eigenvalues --    3.88266   3.88678   3.89294   3.89537   3.89923
 Alpha virt. eigenvalues --    3.90278   3.90688   3.91476   3.92123   3.94033
 Alpha virt. eigenvalues --    3.94639   3.94893   3.95882   3.96910   3.97588
 Alpha virt. eigenvalues --    3.97912   3.98605   3.99249   4.00055   4.00628
 Alpha virt. eigenvalues --    4.00751   4.01689   4.01903   4.02412   4.02634
 Alpha virt. eigenvalues --    4.02891   4.03427   4.04085   4.04671   4.04927
 Alpha virt. eigenvalues --    4.05338   4.06445   4.06591   4.07287   4.07839
 Alpha virt. eigenvalues --    4.08021   4.09036   4.09719   4.10216   4.10414
 Alpha virt. eigenvalues --    4.11839   4.12434   4.12690   4.13174   4.13754
 Alpha virt. eigenvalues --    4.14390   4.14528   4.14903   4.15117   4.15460
 Alpha virt. eigenvalues --    4.15657   4.16149   4.16626   4.16884   4.17276
 Alpha virt. eigenvalues --    4.17536   4.18447   4.18818   4.19174   4.19632
 Alpha virt. eigenvalues --    4.20076   4.20696   4.20931   4.21440   4.21680
 Alpha virt. eigenvalues --    4.21937   4.22044   4.22511   4.22826   4.23016
 Alpha virt. eigenvalues --    4.23163   4.23357   4.23928   4.24158   4.24276
 Alpha virt. eigenvalues --    4.24739   4.25143   4.25726   4.25919   4.26049
 Alpha virt. eigenvalues --    4.26716   4.26858   4.27236   4.27502   4.28442
 Alpha virt. eigenvalues --    4.28800   4.28968   4.29243   4.29387   4.29780
 Alpha virt. eigenvalues --    4.29934   4.30302   4.30326   4.30442   4.30565
 Alpha virt. eigenvalues --    4.30691   4.30988   4.31130   4.31389   4.31856
 Alpha virt. eigenvalues --    4.31913   4.32186   4.32213   4.32475   4.32803
 Alpha virt. eigenvalues --    4.33164   4.33299   4.33385   4.33616   4.33955
 Alpha virt. eigenvalues --    4.34190   4.34722   4.35310   4.35748   4.35837
 Alpha virt. eigenvalues --    4.36140   4.36458   4.37011   4.37090   4.37573
 Alpha virt. eigenvalues --    4.37894   4.38131   4.38553   4.38779   4.39173
 Alpha virt. eigenvalues --    4.39363   4.39451   4.39716   4.40003   4.40192
 Alpha virt. eigenvalues --    4.40675   4.40866   4.41083   4.41629   4.42075
 Alpha virt. eigenvalues --    4.42522   4.42727   4.42900   4.43282   4.43577
 Alpha virt. eigenvalues --    4.43818   4.45075   4.46060   4.46257   4.46751
 Alpha virt. eigenvalues --    4.47490   4.48073   4.48345   4.48903   4.49114
 Alpha virt. eigenvalues --    4.49566   4.49977   4.50203   4.50727   4.51240
 Alpha virt. eigenvalues --    4.52684   4.53078   4.53216   4.54192   4.54435
 Alpha virt. eigenvalues --    4.54688   4.55570   4.57959   4.58167   4.58962
 Alpha virt. eigenvalues --    4.60423   4.63389   4.63625   4.67119   4.68224
 Alpha virt. eigenvalues --    4.69476   4.69895   4.70998   4.71216   4.72154
 Alpha virt. eigenvalues --    4.72440   4.72625   4.72744   4.73187   4.73438
 Alpha virt. eigenvalues --    4.73826   4.73866   4.74336   4.74653   4.75065
 Alpha virt. eigenvalues --    4.75468   4.76222   4.76975   4.77807   4.77860
 Alpha virt. eigenvalues --    4.78409   4.78813   4.80832   4.81112   4.81991
 Alpha virt. eigenvalues --    4.82602   4.82714   4.83645   4.84598   4.84866
 Alpha virt. eigenvalues --    4.85454   4.85586   4.86425   4.86637   4.87141
 Alpha virt. eigenvalues --    4.87603   4.89003   4.89960   4.91355   4.93032
 Alpha virt. eigenvalues --    4.93769   4.94240   4.95873   4.96370   4.96534
 Alpha virt. eigenvalues --    4.97338   4.97509   4.98633   5.01283   5.01780
 Alpha virt. eigenvalues --    5.02329   5.02934   5.03108   5.03802   5.03939
 Alpha virt. eigenvalues --    5.04506   5.05665   5.06402   5.07208   5.07337
 Alpha virt. eigenvalues --    5.07618   5.10018   5.12253   5.12932   5.14145
 Alpha virt. eigenvalues --    5.15712   5.16852   5.17558   5.18878   5.21469
 Alpha virt. eigenvalues --    5.23871   5.24278   5.24548   5.24959   5.25213
 Alpha virt. eigenvalues --    5.25375   5.25542   5.25763   5.25802   5.26102
 Alpha virt. eigenvalues --    5.26745   5.26882   5.27408   5.27680   5.28245
 Alpha virt. eigenvalues --    5.28647   5.29365   5.30288   5.30429   5.32729
 Alpha virt. eigenvalues --    5.33350   5.34717   5.36519   5.36961   5.37514
 Alpha virt. eigenvalues --    5.38158   5.38275   5.38485   5.39501   5.41335
 Alpha virt. eigenvalues --    5.43758   5.44573   5.45058   5.45453   5.45820
 Alpha virt. eigenvalues --    5.46427   5.46670   5.46891   5.50377   5.51053
 Alpha virt. eigenvalues --    5.51339   5.52057   5.53117   5.53264   5.53691
 Alpha virt. eigenvalues --    5.54280   5.58927   5.59607   5.59922   5.61597
 Alpha virt. eigenvalues --    5.64081   5.64232   5.65455   5.66254   5.66947
 Alpha virt. eigenvalues --    5.67358   5.68572   5.68972   5.69639   5.70497
 Alpha virt. eigenvalues --    5.71099   5.73247   5.74020   5.74703   5.76379
 Alpha virt. eigenvalues --    5.77682   5.79436   5.87613   5.91175   5.93622
 Alpha virt. eigenvalues --    6.02243   6.05862   6.10131   6.15070   6.48050
 Alpha virt. eigenvalues --    6.48977   6.52455   6.54471   6.60704   6.64794
 Alpha virt. eigenvalues --    6.74672   6.82998   6.89681   6.91283   6.93286
 Alpha virt. eigenvalues --    6.93403   6.94090   6.94824   6.95104   6.95220
 Alpha virt. eigenvalues --    6.96097   6.96559   6.96659   6.96964   6.98106
 Alpha virt. eigenvalues --    7.00592   7.03104   7.04674   7.05994   7.08979
 Alpha virt. eigenvalues --    7.12642   7.14143   7.14647   7.18878   7.24274
 Alpha virt. eigenvalues --    7.28402   7.28546   7.30040   7.37159   7.38685
 Alpha virt. eigenvalues --    7.41782   7.49098   7.49419   7.52556   7.57206
 Alpha virt. eigenvalues --    7.62316   7.74527   7.76525   8.02737   8.06856
 Alpha virt. eigenvalues --    8.09976   8.15578   8.17815   8.19158   8.21786
 Alpha virt. eigenvalues --    8.39858   8.43596   8.46728   8.50883   8.55500
 Alpha virt. eigenvalues --    8.65096   8.66836   8.78772   8.80601   8.84421
 Alpha virt. eigenvalues --    8.89833   8.91045   8.95631   9.00953   9.03306
 Alpha virt. eigenvalues --    9.10468   9.15503   9.18151   9.22297   9.42583
 Alpha virt. eigenvalues --    9.54528   9.64945   9.89925  10.96288  11.01021
 Alpha virt. eigenvalues --   11.39244  16.39840  16.45278  22.20204  22.28559
 Alpha virt. eigenvalues --   22.30895  22.33597  22.44519  22.50121  22.53280
 Alpha virt. eigenvalues --   22.53953  22.54352  22.56510  22.64973  22.70552
 Alpha virt. eigenvalues --   22.72008  22.72317  22.73392  22.73994  22.74190
 Alpha virt. eigenvalues --   22.74849  22.76631  22.79125  22.82221  22.83337
 Alpha virt. eigenvalues --   22.84198  22.84622  22.88782  22.89536  22.91408
 Alpha virt. eigenvalues --   22.93048  22.94955  22.95437  22.95705  22.97371
 Alpha virt. eigenvalues --   22.97727  22.99342  23.02209  23.04183  23.06650
 Alpha virt. eigenvalues --   23.08612  23.12141  23.15764  23.16641  23.19899
 Alpha virt. eigenvalues --   23.25272  23.26659  23.29098  23.30416  23.32357
 Alpha virt. eigenvalues --   23.38147  23.48208  23.63618  23.81143  25.81594
 Alpha virt. eigenvalues --   32.86404  33.02522  43.90194  44.15275  44.36322
 Alpha virt. eigenvalues --   57.32744  57.52507  57.62124  57.76594 107.17731
          Condensed to atoms (all electrons):
 Mulliken charges:
               1
     1  P    0.415548
     2  C    0.027069
     3  C   -0.165394
     4  C   -0.184270
     5  C   -0.102768
     6  C   -0.227713
     7  C   -0.147049
     8  H    0.262908
     9  H    0.149963
    10  H    0.158528
    11  H    0.155598
    12  H    0.174638
    13  C    0.036557
    14  C   -0.291485
    15  C   -0.141847
    16  C   -0.152586
    17  C   -0.266152
    18  C    0.156924
    19  C    0.190601
    20  C   -0.304140
    21  C   -0.121811
    22  C   -0.220176
    23  C   -0.102062
    24  C   -0.171889
    25  P    0.416872
    26  C    0.117398
    27  C   -0.172358
    28  C   -0.164703
    29  C   -0.135896
    30  C   -0.176994
    31  C   -0.264021
    32  H    0.165046
    33  H    0.151283
    34  H    0.156026
    35  H    0.154998
    36  H    0.181440
    37  C   -0.017316
    38  C    0.003732
    39  C   -0.249451
    40  C   -0.087826
    41  C   -0.179124
    42  C   -0.236786
    43  H    0.177273
    44  C   -0.180449
    45  C   -0.227056
    46  C   -0.109817
    47  C   -0.191481
    48  C   -0.200100
    49  C    0.001848
    50  H    0.188544
    51  H    0.159285
    52  H    0.161275
    53  H    0.155522
    54  H    0.228050
    55  H    0.156115
    56  H    0.157218
    57  H    0.141173
    58  H    0.132868
    59  H    0.181279
    60  H    0.153042
    61  H    0.153917
    62  H    0.157842
    63  H    0.171893
    64  H    0.156765
    65  H    0.157977
    66  H    0.201528
    67  Pd  -0.300290
    68  Cl  -0.109628
    69  S    0.825536
    70  F   -0.218698
    71  F   -0.204407
    72  F   -0.202057
    73  F   -0.197884
    74  O   -0.521406
    75  O   -0.522492
    76  O   -0.304190
    77  N   -0.339657
    78  C   -0.204083
    79  C   -0.151032
    80  H    0.195527
    81  C   -0.333329
    82  H    0.133052
    83  C    0.414546
    84  C   -0.226438
    85  H    0.156661
    86  H    0.135845
    87  H    0.136013
    88  C   -0.470328
    89  H    0.175357
    90  C    0.170989
    91  C    0.016958
    92  C    0.285425
    93  C    0.153468
    94  C    0.221939
    95  C    0.116057
    96  C    0.052275
    97  C   -0.162090
    98  H    0.206359
    99  H    0.196177
 Sum of Mulliken charges =   0.00000
 Mulliken charges with hydrogens summed into heavy atoms:
               1
     1  P    0.415548
     2  C    0.027069
     3  C    0.009244
     4  C   -0.028672
     5  C    0.055760
     6  C   -0.077750
     7  C    0.115859
    13  C    0.036557
    14  C   -0.089957
    15  C    0.016130
    16  C    0.004179
    17  C   -0.094259
    18  C    0.156924
    19  C    0.190601
    20  C   -0.146298
    21  C    0.032106
    22  C   -0.067134
    23  C    0.079217
    24  C   -0.171889
    25  P    0.416872
    26  C    0.117398
    27  C    0.009082
    28  C   -0.009705
    29  C    0.020130
    30  C   -0.025711
    31  C   -0.098976
    37  C   -0.017316
    38  C    0.136600
    39  C   -0.108277
    40  C    0.069392
    41  C   -0.023009
    42  C   -0.059513
    44  C    0.047601
    45  C   -0.071534
    46  C    0.051458
    47  C   -0.032196
    48  C   -0.011556
    49  C    0.001848
    67  Pd  -0.300290
    68  Cl  -0.109628
    69  S    0.825536
    70  F   -0.218698
    71  F   -0.204407
    72  F   -0.202057
    73  F   -0.197884
    74  O   -0.521406
    75  O   -0.522492
    76  O   -0.304190
    77  N   -0.339657
    78  C   -0.204083
    79  C    0.044495
    81  C   -0.200276
    83  C    0.414546
    84  C    0.202082
    88  C   -0.294971
    90  C    0.170989
    91  C    0.016958
    92  C    0.285425
    93  C    0.153468
    94  C    0.221939
    95  C    0.116057
    96  C    0.052275
    97  C    0.240446
 Electronic spatial extent (au):  <R**2>=          36686.4413
 Charge=              0.0000 electrons
 Dipole moment (field-independent basis, Debye):
    X=             10.0096    Y=              8.3276    Z=              4.8037  Tot=             13.8787
 Quadrupole moment (field-independent basis, Debye-Ang):
   XX=           -362.1065   YY=           -393.5734   ZZ=           -381.2560
   XY=            -11.5035   XZ=              2.1969   YZ=            -14.2939
 Traceless Quadrupole moment (field-independent basis, Debye-Ang):
   XX=             16.8722   YY=            -14.5948   ZZ=             -2.2774
   XY=            -11.5035   XZ=              2.1969   YZ=            -14.2939
 Octapole moment (field-independent basis, Debye-Ang**2):
  XXX=            -27.8298  YYY=             85.8400  ZZZ=             37.3974  XYY=             49.2843
  XXY=             88.9184  XXZ=            -60.9579  XZZ=             89.5222  YZZ=              7.9433
  YYZ=             48.5162  XYZ=              1.6943
 Hexadecapole moment (field-independent basis, Debye-Ang**3):
 XXXX=         -18901.6226 YYYY=         -15455.4688 ZZZZ=         -10355.8410 XXXY=           -436.1901
 XXXZ=             74.2469 YYYX=            -53.3483 YYYZ=           -215.1358 ZZZX=             24.3542
 ZZZY=           -182.9564 XXYY=          -6253.8880 XXZZ=          -4986.0692 YYZZ=          -4807.2985
 XXYZ=            170.8784 YYXZ=           -223.7319 ZZXY=            103.6196
 N-N= 1.230459529785D+04 E-N=-3.463573425840D+04  KE= 4.180350649990D+03
 No NMR shielding tensors so no spin-rotation constants.
 Leave Link  601 at Sat Apr  6 23:09:27 2024, MaxMem=  2147483648 cpu:        16.7
 (Enter /cluster/apps/gaussian/g09/l9999.exe)
 1\1\GINC-EU-G9-013-3\SP\RwB97XD\GenECP\C50H36Cl1F4N1O3P2Pd1S1\SROEDIGE
 R\06-Apr-2024\0\\#p sp geom=allcheck scrf(solvent=dichloromethane,smd)
  wb97xd genecp temperature=313 integral(grid=ultrafine)\\title\\0,1\P,
 0,2.2820381742,0.8804084689,-1.335492982\C,0,3.3626527974,1.408592814,
 0.0377967238\C,0,4.7365626294,1.6100889799,-0.12133347\C,0,5.492609264
 4,2.1009233973,0.938226237\C,0,4.8794154479,2.418217348,2.1512984507\C
 ,0,3.5051618997,2.2486005691,2.3028928499\C,0,2.7470487218,1.743325413
 6,1.2485014995\H,0,1.6653620767,1.6106928999,1.3522547469\H,0,3.017957
 1431,2.5088421162,3.2453844283\H,0,5.4773055878,2.8062825612,2.9792666
 715\H,0,6.569347505,2.2394618702,0.8166500679\H,0,5.2174617811,1.37428
 71148,-1.0737863833\C,0,3.0144821427,-0.4616795284,-2.3398545568\C,0,2
 .5127583439,-0.5693431017,-3.6477348335\C,0,2.8637355578,-1.6346149273
 ,-4.4674497169\C,0,3.7279913118,-2.6181468378,-3.9896778902\C,0,4.2060
 944479,-2.5381766755,-2.6885080757\C,0,3.8423128125,-1.484623247,-1.83
 72872189\C,0,4.3309621228,-1.5232215173,-0.4351523978\C,0,5.711103951,
 -1.5044825868,-0.2139446085\C,0,6.2363174548,-1.5293164267,1.074327135
 6\C,0,5.371932983,-1.5882530637,2.16195116\C,0,3.9949452124,-1.6503348
 289,1.9557460082\C,0,3.4534211353,-1.624445705,0.6672483497\P,0,1.6334
 602148,-1.8283012929,0.3709627392\C,0,0.9799966656,-2.2416205117,2.018
 6755303\C,0,0.4617058635,-3.501837121,2.3227102735\C,0,-0.0237954739,-
 3.7609235423,3.603651223\C,0,0.0056396535,-2.7716387864,4.5828782943\C
 ,0,0.4969450738,-1.5031286742,4.2750872925\C,0,0.9669550954,-1.2336174
 392,2.9941019263\H,0,1.3275025416,-0.2318279032,2.7474231715\H,0,0.488
 1619503,-0.7129497213,5.0294654409\H,0,-0.3813649089,-2.9788203355,5.5
 830613256\H,0,-0.4385385724,-4.7452431387,3.8321155302\H,0,0.418557458
 6,-4.2737113423,1.5526222404\C,0,1.6796017506,-3.3700602367,-0.6027776
 287\C,0,0.9308853185,-3.4642535419,-1.7759566846\C,0,1.0266185866,-4.6
 031959292,-2.5728639205\C,0,1.86435458,-5.6508606384,-2.199319585\C,0,
 2.6097793464,-5.5633744088,-1.0213086576\C,0,2.522236778,-4.4251840567
 ,-0.2260729578\H,0,3.1207272439,-4.3488852867,0.6854019039\C,0,1.66455
 74225,3.5102973265,-1.9126311904\C,0,1.775966471,4.7258416903,-2.57918
 65282\C,0,2.6051469763,4.8400233741,-3.6948704007\C,0,3.3343319732,3.7
 368341176,-4.1333535288\C,0,3.2287130559,2.5163783471,-3.4673136169\C,
 0,2.3811155754,2.39259416,-2.3613371895\H,0,3.8136286651,1.6619249888,
 -3.8131975559\H,0,3.9946378115,3.823399337,-4.9994655356\H,0,2.6856577
 784,5.7937295715,-4.2218226432\H,0,1.2026695842,5.5863326383,-2.227793
 9982\H,0,1.0079719412,3.4235618764,-1.0441296352\H,0,3.2646538937,-6.3
 856840407,-0.723115576\H,0,1.9373428239,-6.5439608167,-2.8250441912\H,
 0,0.4347990074,-4.6669667316,-3.4886312654\H,0,0.2649172425,-2.6508211
 827,-2.0606464456\H,0,3.3331400301,-1.7404623801,2.8177802458\H,0,5.76
 46156113,-1.6044451891,3.1810892704\H,0,7.317626664,-1.4976039548,1.22
 58018009\H,0,6.3780791098,-1.4424014073,-1.0775199541\H,0,4.8416414507
 ,-3.3314157727,-2.2893535538\H,0,4.0076210334,-3.4635599224,-4.6217050
 081\H,0,2.4541942067,-1.6984955938,-5.4778070774\H,0,1.8272636705,0.19
 22248668,-4.0270370674\Pd,0,0.3656850425,0.0045244552,-0.5359753255\Cl
 ,0,-1.674696717,-1.3243543586,-3.0961745211\S,0,-2.36569425,-1.7200737
 375,-0.1795237444\F,0,-2.0144070509,3.8958662055,1.993956736\F,0,-2.52
 48275134,2.9706571579,4.4483503303\F,0,-2.619338017,0.2958373716,4.917
 221029\F,0,-2.1555274763,-1.4404428838,2.9268831758\O,0,-1.62654878,-2
 .9579279964,-0.4042753003\O,0,-3.6275180121,-1.7226676663,0.55777609\O
 ,0,-3.3108243064,4.5442761532,-2.5911391451\N,0,-1.3639375177,-0.59640
 59331,0.4113324779\C,0,-0.8023101439,1.5132603158,-1.1897324569\C,0,-0
 .8576468672,1.8888338061,-2.5390158689\H,0,-0.2146994276,1.390321706,-
 3.267353305\C,0,-1.7045012546,2.8895358808,-2.9930370307\H,0,-1.735484
 9538,3.1782608704,-4.0454156663\C,0,-2.5291240561,3.5641301311,-2.0851
 027439\C,0,-4.1582330412,5.2391839459,-1.7220335382\H,0,-4.6840061196,
 5.9897895559,-2.3261848714\H,0,-3.5968672583,5.7537647298,-0.921632155
 2\H,0,-4.9051707943,4.5738207756,-1.2530924802\C,0,-2.5141609911,3.191
 020186,-0.7421725398\H,0,-3.1776753808,3.6768687884,-0.0294370911\C,0,
 -1.6675395218,2.1588332336,-0.2903722571\C,0,-1.8069983836,1.698943672
 9,1.1101027452\C,0,-2.0450217233,2.5736401463,2.1716822854\C,0,-2.3222
 618358,2.1138863048,3.4562399872\C,0,-2.3766945732,0.7443107943,3.6943
 327478\C,0,-2.1273966212,-0.1490867466,2.6580244702\C,0,-1.7970784271,
 0.30696969,1.3765942612\C,0,-2.8846166234,-1.1334582538,-1.8230810532\
 H,0,-3.7613722093,-1.7441564994,-2.0741372079\H,0,-3.1510738933,-0.072
 1443139,-1.7322875019\\Version=ES64L-G09RevD.01\State=1-A\HF=-4276.092
 1307\RMSD=2.566e-09\Dipole=5.1382376,0.750126,-1.688363\Quadrupole=-0.
 1414329,-1.8865124,2.0279453,-16.3800656,7.3537447,1.2252219\PG=C01 [X
 (C50H36Cl1F4N1O3P2Pd1S1)]\\@


 I do not feel obliged to believe that the same God who
 has endowed us with sense, reason, and intellect has
 intended us to forgo their use.
                   --Galileo Galilei
 Job cpu time:       1 days  1 hours 11 minutes 44.3 seconds.
 File lengths (MBytes):  RWF=   3330 Int=      0 D2E=      0 Chk=    205 Scr=      1
 Normal termination of Gaussian 09 at Sat Apr  6 23:09:28 2024.
