 Entering Gaussian System, Link 0=g09
 Input=dppeG6_step1-wb97xd-sp.com
 Output=dppeG6_step1-wb97xd-sp.log
 Initial command:
 /cluster/apps/gaussian/g09/l1.exe "/scratch/264071390.tmpdir/Gau-116397.inp" -scrdir="/scratch/264071390.tmpdir/"
 Entering Link 1 = /cluster/apps/gaussian/g09/l1.exe PID=    116400.
  
 Copyright (c) 1988,1990,1992,1993,1995,1998,2003,2009,2013,
            Gaussian, Inc.  All Rights Reserved.
  
 This is part of the Gaussian(R) 09 program.  It is based on
 the Gaussian(R) 03 system (copyright 2003, Gaussian, Inc.),
 the Gaussian(R) 98 system (copyright 1998, Gaussian, Inc.),
 the Gaussian(R) 94 system (copyright 1995, Gaussian, Inc.),
 the Gaussian 92(TM) system (copyright 1992, Gaussian, Inc.),
 the Gaussian 90(TM) system (copyright 1990, Gaussian, Inc.),
 the Gaussian 88(TM) system (copyright 1988, Gaussian, Inc.),
 the Gaussian 86(TM) system (copyright 1986, Carnegie Mellon
 University), and the Gaussian 82(TM) system (copyright 1983,
 Carnegie Mellon University). Gaussian is a federally registered
 trademark of Gaussian, Inc.
  
 This software contains proprietary and confidential information,
 including trade secrets, belonging to Gaussian, Inc.
  
 This software is provided under written license and may be
 used, copied, transmitted, or stored only in accord with that
 written license.
  
 The following legend is applicable only to US Government
 contracts under FAR:
  
                    RESTRICTED RIGHTS LEGEND
  
 Use, reproduction and disclosure by the US Government is
 subject to restrictions as set forth in subparagraphs (a)
 and (c) of the Commercial Computer Software - Restricted
 Rights clause in FAR 52.227-19.
  
 Gaussian, Inc.
 340 Quinnipiac St., Bldg. 40, Wallingford CT 06492
  
  
 ---------------------------------------------------------------
 Warning -- This program may not be used in any manner that
 competes with the business of Gaussian, Inc. or will provide
 assistance to any competitor of Gaussian, Inc.  The licensee
 of this program is prohibited from giving any competitor of
 Gaussian, Inc. access to this program.  By using this program,
 the user acknowledges that Gaussian, Inc. is engaged in the
 business of creating and licensing software in the field of
 computational chemistry and represents and warrants to the
 licensee that it is not a competitor of Gaussian, Inc. and that
 it will not use this program in any manner prohibited above.
 ---------------------------------------------------------------
  

 Cite this work as:
 Gaussian 09, Revision D.01,
 M. J. Frisch, G. W. Trucks, H. B. Schlegel, G. E. Scuseria, 
 M. A. Robb, J. R. Cheeseman, G. Scalmani, V. Barone, B. Mennucci, 
 G. A. Petersson, H. Nakatsuji, M. Caricato, X. Li, H. P. Hratchian, 
 A. F. Izmaylov, J. Bloino, G. Zheng, J. L. Sonnenberg, M. Hada, 
 M. Ehara, K. Toyota, R. Fukuda, J. Hasegawa, M. Ishida, T. Nakajima, 
 Y. Honda, O. Kitao, H. Nakai, T. Vreven, J. A. Montgomery, Jr., 
 J. E. Peralta, F. Ogliaro, M. Bearpark, J. J. Heyd, E. Brothers, 
 K. N. Kudin, V. N. Staroverov, T. Keith, R. Kobayashi, J. Normand, 
 K. Raghavachari, A. Rendell, J. C. Burant, S. S. Iyengar, J. Tomasi, 
 M. Cossi, N. Rega, J. M. Millam, M. Klene, J. E. Knox, J. B. Cross, 
 V. Bakken, C. Adamo, J. Jaramillo, R. Gomperts, R. E. Stratmann, 
 O. Yazyev, A. J. Austin, R. Cammi, C. Pomelli, J. W. Ochterski, 
 R. L. Martin, K. Morokuma, V. G. Zakrzewski, G. A. Voth, 
 P. Salvador, J. J. Dannenberg, S. Dapprich, A. D. Daniels, 
 O. Farkas, J. B. Foresman, J. V. Ortiz, J. Cioslowski, 
 and D. J. Fox, Gaussian, Inc., Wallingford CT, 2013.
 
 ******************************************
 Gaussian 09:  ES64L-G09RevD.01 24-Apr-2013
                 9-Nov-2023 
 ******************************************
 %nprocshared=8
 Will use up to    8 processors via shared memory.
 %mem=16GB
 %oldchk=dppeG6_step1.chk
 %chk=dppeG6_step1-wb97xd-sp.chk
 Copying data from "dppeG6_step1.chk" to current chk file "dppeG6_step1-wb97xd-sp.chk".
 ----------------------------------------------------------------------
 #p sp geom=allcheck scrf(solvent=dichloromethane,smd) wb97xd genecp te
 mperature=373 integral(grid=ultrafine)
 ----------------------------------------------------------------------
 1/29=7,38=1,112=373000/1;
 2/12=2,40=1/2;
 3/5=7,11=2,14=-4,16=1,17=8,25=1,30=1,70=32201,72=9,74=-58,75=-5/1,2,3;
 4//1;
 5/5=2,38=5,53=9/2;
 6/7=2,8=2,9=2,10=2,28=1/1;
 99/5=1,9=1/99;
 Leave Link    1 at Thu Nov  9 15:20:06 2023, MaxMem=  2147483648 cpu:         1.5
 (Enter /cluster/apps/gaussian/g09/l101.exe)
 Structure from the checkpoint file:  "dppeG6_step1-wb97xd-sp.chk"
 -----
 title
 -----
 Charge =  0 Multiplicity = 1
 Redundant internal coordinates found in file.
 Pd,0,0.2006997361,0.4897204967,-0.2757451417
 S,0,0.82170555,-1.7228146766,-2.5405171493
 P,0,0.2235297351,2.2670164583,1.0979906198
 P,0,2.3824837898,0.0905172987,0.4557802709
 O,0,1.9446814062,-0.7813693411,-2.6530289981
 O,0,1.0934112886,-3.1585442136,-2.634941656
 N,0,0.0259104108,-1.3400392477,-1.1861356652
 C,0,-1.7248250539,0.7067290017,-0.8558687139
 C,0,-2.1782447225,1.8562693855,-1.5094683737
 H,0,-1.5335993437,2.7369354616,-1.5729636336
 C,0,-3.4419432619,1.9053229531,-2.1018100762
 H,0,-3.7718492615,2.816826607,-2.6076500136
 C,0,-4.2695190453,0.7877883614,-2.0535405843
 C,0,-3.8350173378,-0.3641534146,-1.4037739863
 H,0,-4.4790067324,-1.2447418914,-1.3921395919
 C,0,-2.5759715742,-0.4195590307,-0.785836552
 C,0,-2.1306782288,-1.6958811794,-0.1653228249
 C,0,-2.9089458283,-2.4655574383,0.7243090964
 C,0,-2.4837814017,-3.7258211078,1.1462975613
 C,0,-1.2694574611,-4.2360467423,0.6970010739
 C,0,-0.4467793213,-3.47410408,-0.1204430193
 C,0,-0.8470314479,-2.1936024378,-0.5234075256
 C,0,-0.3118975115,-1.3295610564,-3.8585612321
 H,0,0.2017747774,-1.52506078,-4.8089476466
 H,0,-1.1918320309,-1.9769802799,-3.7534700648
 C,0,2.5005536018,1.0275887254,2.0519542837
 H,0,1.8977308342,0.500036428,2.8083872207
 H,0,3.5395580056,1.0673619507,2.4132609557
 C,0,1.9350356647,2.4214810134,1.8028904245
 H,0,2.5487639021,2.9588786653,1.0618034635
 H,0,1.9149862634,3.0313206834,2.7184606118
 C,0,2.7532862847,-1.6477009064,0.802180339
 C,0,2.2872600444,-2.2542250821,1.9764000267
 H,0,1.8031557537,-1.6607533508,2.755413817
 C,0,2.4104365145,-3.6299411164,2.1491897587
 H,0,2.0282469477,-4.0990375191,3.05761056
 C,0,2.9846414255,-4.4109019781,1.1466798169
 H,0,3.0532520012,-5.4935237992,1.2721545759
 C,0,3.4375093526,-3.8120804665,-0.0276437159
 H,0,3.8573986931,-4.4220415623,-0.8299425445
 C,0,3.323358803,-2.4356407866,-0.2056152307
 H,0,3.6301186936,-1.9769966969,-1.1478432928
 C,0,3.7784784108,0.7745607651,-0.4862953998
 C,0,3.514975175,1.5562367295,-1.6155434184
 H,0,2.4856043945,1.6502245972,-1.9688134916
 C,0,4.5648032879,2.1629089431,-2.3031579866
 H,0,4.3556325507,2.7668722709,-3.1890403993
 C,0,5.8782404311,1.9800891488,-1.8746352635
 H,0,6.700978433,2.4495605287,-2.419329108
 C,0,6.1465505594,1.1863622495,-0.7582760252
 H,0,7.1771194703,1.0322373265,-0.4299248443
 C,0,5.1001885558,0.5857763597,-0.0636513857
 H,0,5.3121998288,-0.0439470286,0.8051802388
 C,0,-0.1681690508,3.9086865469,0.4233076151
 C,0,0.6992507852,4.4673672117,-0.5261713829
 H,0,1.6223865409,3.9494859953,-0.8020875742
 C,0,0.3802358721,5.6745019521,-1.1406036389
 H,0,1.0630986925,6.1051548165,-1.8764701979
 C,0,-0.8128041376,6.3259821875,-0.824979679
 H,0,-1.0648279718,7.2708611167,-1.3119477259
 C,0,-1.6863127622,5.7644292518,0.1040099544
 H,0,-2.6272631157,6.2644916227,0.3444456064
 C,0,-1.3694171142,4.5582340431,0.7265507874
 H,0,-2.0643659792,4.1134230886,1.4418347963
 C,0,-0.8251735744,2.0539567789,2.5705262184
 C,0,-0.7500957115,2.958900588,3.6402198257
 H,0,-0.0856746029,3.8257868902,3.5846790058
 C,0,-1.5345485669,2.7669536858,4.7728076276
 H,0,-1.4741709556,3.475452371,5.6022373294
 C,0,-2.3991352454,1.672426984,4.8464462025
 H,0,-3.0146835918,1.5237990013,5.7368834487
 C,0,-2.4828741774,0.7751339707,3.7851201251
 H,0,-3.1671566067,-0.0740310864,3.8281272052
 C,0,-1.6977557396,0.9640262195,2.6477290941
 H,0,-1.7690296701,0.2724543143,1.8061876093
 H,0,-0.5970265898,-0.2743201554,-3.7659497351
 H,0,-5.2537133463,0.804159747,-2.5275737824
 H,0,0.5247872109,-3.8425031863,-0.4471809043
 H,0,-3.0955813187,-4.3012467832,1.8407589684
 C,0,-0.804301192,-5.5699815557,1.2050174356
 C,0,-4.2170087954,-1.9829992512,1.3049937074
 F,0,-0.2906532966,-5.4725268993,2.4446277193
 F,0,0.1438951389,-6.1044627297,0.4342730266
 F,0,-1.80915194,-6.4492607488,1.2811463915
 F,0,-4.2381475845,-0.6637339698,1.5203767089
 F,0,-4.4559028448,-2.5591536465,2.4934460824
 F,0,-5.2717157309,-2.27583107,0.5306466293
 Recover connectivity data from disk.
 NAtoms=     87 NQM=       87 NQMF=       0 NMMI=      0 NMMIF=      0
                NMic=       0 NMicF=      0.
                    Isotopes and Nuclear Properties:
 (Nuclear quadrupole moments (NQMom) in fm**2, nuclear magnetic moments (NMagM)
  in nuclear magnetons)

  Atom         1           2           3           4           5           6           7           8           9          10
 IAtWgt=         106          32          31          31          16          16          14          12          12           1
 AtmWgt= 105.9032000  31.9720718  30.9737634  30.9737634  15.9949146  15.9949146  14.0030740  12.0000000  12.0000000   1.0078250
 NucSpn=           0           0           1           1           0           0           2           0           0           1
 AtZEff=-237.3600000 -13.6000000 -12.9400000 -12.9400000  -5.6000000  -5.6000000  -4.5500000  -3.6000000  -3.6000000  -1.0000000
 NQMom=    0.0000000   0.0000000   0.0000000   0.0000000   0.0000000   0.0000000   2.0440000   0.0000000   0.0000000   0.0000000
 NMagM=    0.0000000   0.0000000   1.1316000   1.1316000   0.0000000   0.0000000   0.4037610   0.0000000   0.0000000   2.7928460
 AtZNuc=  46.0000000  16.0000000  15.0000000  15.0000000   8.0000000   8.0000000   7.0000000   6.0000000   6.0000000   1.0000000

  Atom        11          12          13          14          15          16          17          18          19          20
 IAtWgt=          12           1          12          12           1          12          12          12          12          12
 AtmWgt=  12.0000000   1.0078250  12.0000000  12.0000000   1.0078250  12.0000000  12.0000000  12.0000000  12.0000000  12.0000000
 NucSpn=           0           1           0           0           1           0           0           0           0           0
 AtZEff=  -3.6000000  -1.0000000  -3.6000000  -3.6000000  -1.0000000  -3.6000000  -3.6000000  -3.6000000  -3.6000000  -3.6000000
 NQMom=    0.0000000   0.0000000   0.0000000   0.0000000   0.0000000   0.0000000   0.0000000   0.0000000   0.0000000   0.0000000
 NMagM=    0.0000000   2.7928460   0.0000000   0.0000000   2.7928460   0.0000000   0.0000000   0.0000000   0.0000000   0.0000000
 AtZNuc=   6.0000000   1.0000000   6.0000000   6.0000000   1.0000000   6.0000000   6.0000000   6.0000000   6.0000000   6.0000000

  Atom        21          22          23          24          25          26          27          28          29          30
 IAtWgt=          12          12          12           1           1          12           1           1          12           1
 AtmWgt=  12.0000000  12.0000000  12.0000000   1.0078250   1.0078250  12.0000000   1.0078250   1.0078250  12.0000000   1.0078250
 NucSpn=           0           0           0           1           1           0           1           1           0           1
 AtZEff=  -3.6000000  -3.6000000  -3.6000000  -1.0000000  -1.0000000  -3.6000000  -1.0000000  -1.0000000  -3.6000000  -1.0000000
 NQMom=    0.0000000   0.0000000   0.0000000   0.0000000   0.0000000   0.0000000   0.0000000   0.0000000   0.0000000   0.0000000
 NMagM=    0.0000000   0.0000000   0.0000000   2.7928460   2.7928460   0.0000000   2.7928460   2.7928460   0.0000000   2.7928460
 AtZNuc=   6.0000000   6.0000000   6.0000000   1.0000000   1.0000000   6.0000000   1.0000000   1.0000000   6.0000000   1.0000000

  Atom        31          32          33          34          35          36          37          38          39          40
 IAtWgt=           1          12          12           1          12           1          12           1          12           1
 AtmWgt=   1.0078250  12.0000000  12.0000000   1.0078250  12.0000000   1.0078250  12.0000000   1.0078250  12.0000000   1.0078250
 NucSpn=           1           0           0           1           0           1           0           1           0           1
 AtZEff=  -1.0000000  -3.6000000  -3.6000000  -1.0000000  -3.6000000  -1.0000000  -3.6000000  -1.0000000  -3.6000000  -1.0000000
 NQMom=    0.0000000   0.0000000   0.0000000   0.0000000   0.0000000   0.0000000   0.0000000   0.0000000   0.0000000   0.0000000
 NMagM=    2.7928460   0.0000000   0.0000000   2.7928460   0.0000000   2.7928460   0.0000000   2.7928460   0.0000000   2.7928460
 AtZNuc=   1.0000000   6.0000000   6.0000000   1.0000000   6.0000000   1.0000000   6.0000000   1.0000000   6.0000000   1.0000000

  Atom        41          42          43          44          45          46          47          48          49          50
 IAtWgt=          12           1          12          12           1          12           1          12           1          12
 AtmWgt=  12.0000000   1.0078250  12.0000000  12.0000000   1.0078250  12.0000000   1.0078250  12.0000000   1.0078250  12.0000000
 NucSpn=           0           1           0           0           1           0           1           0           1           0
 AtZEff=  -3.6000000  -1.0000000  -3.6000000  -3.6000000  -1.0000000  -3.6000000  -1.0000000  -3.6000000  -1.0000000  -3.6000000
 NQMom=    0.0000000   0.0000000   0.0000000   0.0000000   0.0000000   0.0000000   0.0000000   0.0000000   0.0000000   0.0000000
 NMagM=    0.0000000   2.7928460   0.0000000   0.0000000   2.7928460   0.0000000   2.7928460   0.0000000   2.7928460   0.0000000
 AtZNuc=   6.0000000   1.0000000   6.0000000   6.0000000   1.0000000   6.0000000   1.0000000   6.0000000   1.0000000   6.0000000

  Atom        51          52          53          54          55          56          57          58          59          60
 IAtWgt=           1          12           1          12          12           1          12           1          12           1
 AtmWgt=   1.0078250  12.0000000   1.0078250  12.0000000  12.0000000   1.0078250  12.0000000   1.0078250  12.0000000   1.0078250
 NucSpn=           1           0           1           0           0           1           0           1           0           1
 AtZEff=  -1.0000000  -3.6000000  -1.0000000  -3.6000000  -3.6000000  -1.0000000  -3.6000000  -1.0000000  -3.6000000  -1.0000000
 NQMom=    0.0000000   0.0000000   0.0000000   0.0000000   0.0000000   0.0000000   0.0000000   0.0000000   0.0000000   0.0000000
 NMagM=    2.7928460   0.0000000   2.7928460   0.0000000   0.0000000   2.7928460   0.0000000   2.7928460   0.0000000   2.7928460
 AtZNuc=   1.0000000   6.0000000   1.0000000   6.0000000   6.0000000   1.0000000   6.0000000   1.0000000   6.0000000   1.0000000

  Atom        61          62          63          64          65          66          67          68          69          70
 IAtWgt=          12           1          12           1          12          12           1          12           1          12
 AtmWgt=  12.0000000   1.0078250  12.0000000   1.0078250  12.0000000  12.0000000   1.0078250  12.0000000   1.0078250  12.0000000
 NucSpn=           0           1           0           1           0           0           1           0           1           0
 AtZEff=  -3.6000000  -1.0000000  -3.6000000  -1.0000000  -3.6000000  -3.6000000  -1.0000000  -3.6000000  -1.0000000  -3.6000000
 NQMom=    0.0000000   0.0000000   0.0000000   0.0000000   0.0000000   0.0000000   0.0000000   0.0000000   0.0000000   0.0000000
 NMagM=    0.0000000   2.7928460   0.0000000   2.7928460   0.0000000   0.0000000   2.7928460   0.0000000   2.7928460   0.0000000
 AtZNuc=   6.0000000   1.0000000   6.0000000   1.0000000   6.0000000   6.0000000   1.0000000   6.0000000   1.0000000   6.0000000

  Atom        71          72          73          74          75          76          77          78          79          80
 IAtWgt=           1          12           1          12           1           1           1           1           1          12
 AtmWgt=   1.0078250  12.0000000   1.0078250  12.0000000   1.0078250   1.0078250   1.0078250   1.0078250   1.0078250  12.0000000
 NucSpn=           1           0           1           0           1           1           1           1           1           0
 AtZEff=  -1.0000000  -3.6000000  -1.0000000  -3.6000000  -1.0000000  -1.0000000  -1.0000000  -1.0000000  -1.0000000  -3.6000000
 NQMom=    0.0000000   0.0000000   0.0000000   0.0000000   0.0000000   0.0000000   0.0000000   0.0000000   0.0000000   0.0000000
 NMagM=    2.7928460   0.0000000   2.7928460   0.0000000   2.7928460   2.7928460   2.7928460   2.7928460   2.7928460   0.0000000
 AtZNuc=   1.0000000   6.0000000   1.0000000   6.0000000   1.0000000   1.0000000   1.0000000   1.0000000   1.0000000   6.0000000

  Atom        81          82          83          84          85          86          87
 IAtWgt=          12          19          19          19          19          19          19
 AtmWgt=  12.0000000  18.9984033  18.9984033  18.9984033  18.9984033  18.9984033  18.9984033
 NucSpn=           0           1           1           1           1           1           1
 AtZEff=  -3.6000000  -6.7500000  -6.7500000  -6.7500000  -6.7500000  -6.7500000  -6.7500000
 NQMom=    0.0000000   0.0000000   0.0000000   0.0000000   0.0000000   0.0000000   0.0000000
 NMagM=    0.0000000   2.6288670   2.6288670   2.6288670   2.6288670   2.6288670   2.6288670
 AtZNuc=   6.0000000   9.0000000   9.0000000   9.0000000   9.0000000   9.0000000   9.0000000
 Leave Link  101 at Thu Nov  9 15:20:06 2023, MaxMem=  2147483648 cpu:         2.6
 (Enter /cluster/apps/gaussian/g09/l202.exe)
 Stoichiometry    C41H33F6NO2P2PdS
 Framework group  C1[X(C41H33F6NO2P2PdS)]
 Deg. of freedom   255
 Full point group                 C1      NOp   1
 RotChk:  IX=0 Diff= 6.87D-15
 Largest Abelian subgroup         C1      NOp   1
 Largest concise Abelian subgroup C1      NOp   1
                         Standard orientation:                         
 ---------------------------------------------------------------------
 Center     Atomic      Atomic             Coordinates (Angstroms)
 Number     Number       Type             X           Y           Z
 ---------------------------------------------------------------------
      1         46           0       -0.831404    0.092656   -0.387371
      2         16           0        0.817501    1.960999   -2.436898
      3         15           0       -2.364491   -0.817464    0.979295
      4         15           0       -1.032073    2.016610    0.921373
      5          8           0       -0.426390    2.708510   -2.204483
      6          8           0        2.082978    2.696039   -2.485312
      7          7           0        0.849843    0.760832   -1.353981
      8          6           0       -0.518860   -1.578708   -1.482879
      9          6           0       -1.543163   -2.192120   -2.210034
     10          1           0       -2.579027   -1.873061   -2.067344
     11          6           0       -1.273659   -3.203825   -3.134172
     12          1           0       -2.093431   -3.666490   -3.690469
     13          6           0        0.040050   -3.608977   -3.348913
     14          6           0        1.071925   -3.011009   -2.630842
     15          1           0        2.101644   -3.316000   -2.823072
     16          6           0        0.812740   -2.008151   -1.683630
     17          6           0        1.955723   -1.352621   -0.993563
     18          6           0        3.020602   -2.044083   -0.379186
     19          6           0        4.132013   -1.360388    0.115214
     20          6           0        4.195903    0.026241    0.015435
     21          6           0        3.133055    0.741828   -0.517352
     22          6           0        1.997099    0.069325   -0.985976
     23          6           0        0.639721    1.145496   -4.011793
     24          1           0        0.561420    1.923363   -4.782576
     25          1           0        1.530900    0.526237   -4.175492
     26          6           0       -1.773803    1.406352    2.507953
     27          1           0       -1.006279    0.831102    3.050071
     28          1           0       -2.085418    2.245040    3.149166
     29          6           0       -2.949539    0.506816    2.142909
     30          1           0       -3.727947    1.084820    1.618828
     31          1           0       -3.416839    0.053555    3.029905
     32          6           0        0.539504    2.824703    1.316368
     33          6           0        1.387598    2.290699    2.295868
     34          1           0        1.060965    1.455942    2.920305
     35          6           0        2.671559    2.801668    2.463132
     36          1           0        3.334113    2.368793    3.214790
     37          6           0        3.122986    3.837071    1.645335
     38          1           0        4.140796    4.216136    1.758884
     39          6           0        2.286157    4.361612    0.661828
     40          1           0        2.645217    5.149309   -0.003493
     41          6           0        0.998188    3.859972    0.492165
     42          1           0        0.364557    4.236372   -0.313492
     43          6           0       -2.209076    3.311509    0.429314
     44          6           0       -2.996713    3.113393   -0.709120
     45          1           0       -2.813675    2.238227   -1.336670
     46          6           0       -3.966782    4.052005   -1.056937
     47          1           0       -4.575175    3.897337   -1.950944
     48          6           0       -4.143337    5.194762   -0.279051
     49          1           0       -4.898578    5.933782   -0.557354
     50          6           0       -3.347214    5.404494    0.848092
     51          1           0       -3.476533    6.306638    1.450633
     52          6           0       -2.383160    4.465249    1.203758
     53          1           0       -1.753184    4.635250    2.081596
     54          6           0       -3.875550   -1.527993    0.261272
     55          6           0       -4.774576   -0.671751   -0.390382
     56          1           0       -4.595562    0.407232   -0.406434
     57          6           0       -5.889676   -1.191623   -1.040581
     58          1           0       -6.587440   -0.517623   -1.542688
     59          6           0       -6.108809   -2.569669   -1.059545
     60          1           0       -6.981627   -2.977136   -1.574917
     61          6           0       -5.207539   -3.425193   -0.429330
     62          1           0       -5.368311   -4.505407   -0.452767
     63          6           0       -4.091768   -2.909663    0.228068
     64          1           0       -3.379274   -3.584738    0.706679
     65          6           0       -1.678333   -2.086307    2.089591
     66          6           0       -2.436245   -2.588314    3.158405
     67          1           0       -3.464162   -2.248883    3.313980
     68          6           0       -1.888640   -3.535021    4.017964
     69          1           0       -2.483421   -3.924502    4.847487
     70          6           0       -0.582612   -3.987880    3.817638
     71          1           0       -0.154604   -4.731834    4.493812
     72          6           0        0.171633   -3.498401    2.754584
     73          1           0        1.187382   -3.858363    2.581802
     74          6           0       -0.373827   -2.548853    1.890534
     75          1           0        0.206868   -2.171597    1.046724
     76          1           0       -0.261868    0.521468   -3.978110
     77          1           0        0.269165   -4.386563   -4.081362
     78          1           0        3.150195    1.829886   -0.564828
     79          1           0        4.940539   -1.912236    0.594214
     80          6           0        5.374643    0.747711    0.601854
     81          6           0        3.026178   -3.541286   -0.180596
     82          9           0        5.267114    0.861121    1.938095
     83          9           0        5.505742    1.983630    0.118004
     84          9           0        6.519791    0.097112    0.369457
     85          9           0        1.808658   -4.042201    0.051841
     86          9           0        3.778310   -3.882091    0.877512
     87          9           0        3.535233   -4.205132   -1.228423
 ---------------------------------------------------------------------
 Rotational constants (GHZ):      0.0590172      0.0491288      0.0369184
 Leave Link  202 at Thu Nov  9 15:20:06 2023, MaxMem=  2147483648 cpu:         0.0
 (Enter /cluster/apps/gaussian/g09/l301.exe)
 General basis read from cards:  (5D, 7F)
 Centers:       8      9     11     13     14     16     17     18     19     20
 Centers:      21     22     23     26     29     32     33     35     37     39
 Centers:      41     43     44     46     48     50     52     54     55     57
 Centers:      59     61     63     65     66     68     70     72     74     80
 Centers:      81     10     12     15     24     25     27     28     30     31
 Centers:      34     36     38     40     42     45     47     49     51     53
 Centers:      56     58     60     62     64     67     69     71     73     75
 Centers:      76     77     78     79      2     82     83     84     85     86
 Centers:      87      7      3      4      5      6      1
 def2tzvp
 ****
 ======================================================================================================
                                       Pseudopotential Parameters
 ======================================================================================================
  Center     Atomic      Valence      Angular      Power
  Number     Number     Electrons     Momentum     of R      Exponent        Coefficient   SO-Coeffient
 ======================================================================================================
    1         46           18
                                      G and up 
                                                     2        1.0000000        0.00000000    0.00000000
                                      S - G
                                                     2       12.4300000      240.22904000    0.00000000
                                                     2        6.1707590       35.17194300    0.00000000
                                      P - G
                                                     2       11.0800000      170.41727600    0.00000000
                                                     2        5.8295540       28.47213300    0.00000000
                                      D - G
                                                     2        9.5100000       69.01384500    0.00000000
                                                     2        4.1397810       11.75086200    0.00000000
                                      F - G
                                                     2       13.2700000      -31.92955400    0.00000000
                                                     2        6.6300000       -5.39821700    0.00000000
    2         16
                                   No pseudopotential on this center.
    3         15
                                   No pseudopotential on this center.
    4         15
                                   No pseudopotential on this center.
    5          8
                                   No pseudopotential on this center.
    6          8
                                   No pseudopotential on this center.
    7          7
                                   No pseudopotential on this center.
    8          6
                                   No pseudopotential on this center.
    9          6
                                   No pseudopotential on this center.
   10          1
                                   No pseudopotential on this center.
   11          6
                                   No pseudopotential on this center.
   12          1
                                   No pseudopotential on this center.
   13          6
                                   No pseudopotential on this center.
   14          6
                                   No pseudopotential on this center.
   15          1
                                   No pseudopotential on this center.
   16          6
                                   No pseudopotential on this center.
   17          6
                                   No pseudopotential on this center.
   18          6
                                   No pseudopotential on this center.
   19          6
                                   No pseudopotential on this center.
   20          6
                                   No pseudopotential on this center.
   21          6
                                   No pseudopotential on this center.
   22          6
                                   No pseudopotential on this center.
   23          6
                                   No pseudopotential on this center.
   24          1
                                   No pseudopotential on this center.
   25          1
                                   No pseudopotential on this center.
   26          6
                                   No pseudopotential on this center.
   27          1
                                   No pseudopotential on this center.
   28          1
                                   No pseudopotential on this center.
   29          6
                                   No pseudopotential on this center.
   30          1
                                   No pseudopotential on this center.
   31          1
                                   No pseudopotential on this center.
   32          6
                                   No pseudopotential on this center.
   33          6
                                   No pseudopotential on this center.
   34          1
                                   No pseudopotential on this center.
   35          6
                                   No pseudopotential on this center.
   36          1
                                   No pseudopotential on this center.
   37          6
                                   No pseudopotential on this center.
   38          1
                                   No pseudopotential on this center.
   39          6
                                   No pseudopotential on this center.
   40          1
                                   No pseudopotential on this center.
   41          6
                                   No pseudopotential on this center.
   42          1
                                   No pseudopotential on this center.
   43          6
                                   No pseudopotential on this center.
   44          6
                                   No pseudopotential on this center.
   45          1
                                   No pseudopotential on this center.
   46          6
                                   No pseudopotential on this center.
   47          1
                                   No pseudopotential on this center.
   48          6
                                   No pseudopotential on this center.
   49          1
                                   No pseudopotential on this center.
   50          6
                                   No pseudopotential on this center.
   51          1
                                   No pseudopotential on this center.
   52          6
                                   No pseudopotential on this center.
   53          1
                                   No pseudopotential on this center.
   54          6
                                   No pseudopotential on this center.
   55          6
                                   No pseudopotential on this center.
   56          1
                                   No pseudopotential on this center.
   57          6
                                   No pseudopotential on this center.
   58          1
                                   No pseudopotential on this center.
   59          6
                                   No pseudopotential on this center.
   60          1
                                   No pseudopotential on this center.
   61          6
                                   No pseudopotential on this center.
   62          1
                                   No pseudopotential on this center.
   63          6
                                   No pseudopotential on this center.
   64          1
                                   No pseudopotential on this center.
   65          6
                                   No pseudopotential on this center.
   66          6
                                   No pseudopotential on this center.
   67          1
                                   No pseudopotential on this center.
   68          6
                                   No pseudopotential on this center.
   69          1
                                   No pseudopotential on this center.
   70          6
                                   No pseudopotential on this center.
   71          1
                                   No pseudopotential on this center.
   72          6
                                   No pseudopotential on this center.
   73          1
                                   No pseudopotential on this center.
   74          6
                                   No pseudopotential on this center.
   75          1
                                   No pseudopotential on this center.
   76          1
                                   No pseudopotential on this center.
   77          1
                                   No pseudopotential on this center.
   78          1
                                   No pseudopotential on this center.
   79          1
                                   No pseudopotential on this center.
   80          6
                                   No pseudopotential on this center.
   81          6
                                   No pseudopotential on this center.
   82          9
                                   No pseudopotential on this center.
   83          9
                                   No pseudopotential on this center.
   84          9
                                   No pseudopotential on this center.
   85          9
                                   No pseudopotential on this center.
   86          9
                                   No pseudopotential on this center.
   87          9
                                   No pseudopotential on this center.
 ======================================================================================================
 Ernie: Thresh=  0.10000D-02 Tol=  0.10000D-05 Strict=F.
 There are  2170 symmetry adapted cartesian basis functions of A   symmetry.
 There are  1899 symmetry adapted basis functions of A   symmetry.
  1899 basis functions,  3095 primitive gaussians,  2170 cartesian basis functions
   210 alpha electrons      210 beta electrons
       nuclear repulsion energy      9507.9756473117 Hartrees.
 IExCor= 4639 DFT=T Ex+Corr=wB97XD ExCW=0 ScaHFX=  1.000000
 ScaDFX=  1.000000  1.000000  1.000000  1.000000 ScalE2=  1.000000  1.000000
 IRadAn=      5 IRanWt=     -1 IRanGd=            0 ICorTp=0 IEmpDi=121
  HFx wShort=  0.000000 wLong=  0.200000 cFull=  0.222036 cShort=  0.000000 cLong=  0.777964
  DFx wShort=  0.000000 wLong=  0.200000 cFull=  0.000000 cShort=  0.000000 cLong=  1.000000
 NAtoms=   87 NActive=   87 NUniq=   87 SFac= 1.00D+00 NAtFMM=   60 NAOKFM=T Big=T
 Integral buffers will be    131072 words long.
 Raffenetti 2 integral format.
 Two-electron integral symmetry is turned on.
 R6Disp:  Grimme-D2 Dispersion energy=       -0.1112560813 Hartrees.
 Nuclear repulsion after empirical dispersion term =     9507.8643912304 Hartrees.
 ------------------------------------------------------------------------------
 Polarizable Continuum Model (PCM)
 =================================
 Model                : PCM (using non-symmetric T matrix).
 Atomic radii         : SMD-Coulomb.
 Polarization charges : Total charges.
 Charge compensation  : None.
 Solution method      : On-the-fly selection.
 Cavity type          : VdW (van der Waals Surface) (Alpha=1.000).
 Cavity algorithm     : GePol (No added spheres)
                        Default sphere list used, NSphG=   87.
                        Lebedev-Laikov grids with approx.  5.0 points / Ang**2.
                        Smoothing algorithm: Karplus/York (Gamma=1.0000).
                        Polarization charges: spherical gaussians, with
                                              point-specific exponents (IZeta= 3).
                        Self-potential: point-specific (ISelfS= 7).
                        Self-field    : sphere-specific E.n sum rule (ISelfD= 2).
 Solvent              : Dichloromethane, Eps=   8.930000 Eps(inf)=   2.028346
 ------------------------------------------------------------------------------
 GePol: Number of generator spheres                  =      87
 GePol: Total number of spheres                      =      87
 GePol: Number of exposed spheres                    =      87 (100.00%)
 GePol: Number of points                             =    6289
 GePol: Average weight of points                     =       0.11
 GePol: Minimum weight of points                     =   0.21D-10
 GePol: Maximum weight of points                     =    0.21501
 GePol: Number of points with low weight             =     457
 GePol: Fraction of low-weight points (<1% of avg)   =       7.27%
 GePol: Cavity surface area                          =    707.298 Ang**2
 GePol: Cavity volume                                =    761.765 Ang**3
 ------------------------------------------------------------------------------
 Atomic radii for non-electrostatic terms: SMD-CDS.
 ------------------------------------------------------------------------------
 PCM non-electrostatic energy =        -0.0171240555 Hartrees.
 Nuclear repulsion after PCM non-electrostatic terms =     9507.8472671749 Hartrees.
 Leave Link  301 at Thu Nov  9 15:20:06 2023, MaxMem=  2147483648 cpu:         0.6
 (Enter /cluster/apps/gaussian/g09/l302.exe)
 NPDir=0 NMtPBC=     1 NCelOv=     1 NCel=       1 NClECP=     1 NCelD=      1
         NCelK=      1 NCelE2=     1 NClLst=     1 CellRange=     0.0.
 One-electron integrals computed using PRISM.
   1 Symmetry operations used in ECPInt.
 ECPInt:  NShTT=  270480 NPrTT=  846970 LenC2=  202789 LenP2D=  407484.
 LDataN:  DoStor=T MaxTD1= 7 Len=  274
 NBasis=  1899 RedAO= T EigKep=  2.90D-06  NBF=  1899
 NBsUse=  1899 1.00D-06 EigRej= -1.00D+00 NBFU=  1899
 Precomputing XC quadrature grid using
 IXCGrd= 4 IRadAn=           5 IRanWt=          -1 IRanGd=           0 AccXCQ= 0.00D+00.
 Defaulting to unpruned grid for atomic number  46.
 Generated NRdTot=       0 NPtTot=           0 NUsed=           0 NTot=          32
 NSgBfM=  1977  1980  1980  1980  1980 MxSgAt=    87 MxSgA2=    87.
 Leave Link  302 at Thu Nov  9 15:20:22 2023, MaxMem=  2147483648 cpu:       119.9
 (Enter /cluster/apps/gaussian/g09/l303.exe)
 DipDrv:  MaxL=1.
 Leave Link  303 at Thu Nov  9 15:20:23 2023, MaxMem=  2147483648 cpu:         5.1
 (Enter /cluster/apps/gaussian/g09/l401.exe)
 ExpMin= 3.70D-02 ExpMax= 6.07D+04 ExpMxC= 2.07D+03 IAcc=3 IRadAn=         5 AccDes= 0.00D+00
 Harris functional with IExCor= 4639 and IRadAn=       5 diagonalized for initial guess.
 HarFok:  IExCor= 4639 AccDes= 0.00D+00 IRadAn=         5 IDoV= 1 UseB2=F ITyADJ=14
 ICtDFT=  3500011 ScaDFX=  1.000000  1.000000  1.000000  1.000000
 Defaulting to unpruned grid for atomic number  46.
 Defaulting to unpruned grid for atomic number  46.
 Defaulting to unpruned grid for atomic number  46.
 Defaulting to unpruned grid for atomic number  46.
 Defaulting to unpruned grid for atomic number  46.
 Defaulting to unpruned grid for atomic number  46.
 Defaulting to unpruned grid for atomic number  46.
 Defaulting to unpruned grid for atomic number  46.
 FoFCou: FMM=F IPFlag=           0 FMFlag=      100000 FMFlg1=        2001
         NFxFlg=           0 DoJE=T BraDBF=F KetDBF=T FulRan=T
         wScrn=  0.000000 ICntrl=     500 IOpCl=  0 I1Cent=   200000004 NGrid=           0
         NMat0=    1 NMatS0=      1 NMatT0=    0 NMatD0=    1 NMtDS0=    0 NMtDT0=    0
 Petite list used in FoFCou.
 Harris En= -3475.21157230724    
 JPrj=0 DoOrth=F DoCkMO=F.
 Leave Link  401 at Thu Nov  9 15:21:18 2023, MaxMem=  2147483648 cpu:       442.9
 (Enter /cluster/apps/gaussian/g09/l502.exe)
 Closed shell SCF:
 Using DIIS extrapolation, IDIIS=  1040.
 Integral symmetry usage will be decided dynamically.
 IVT=    14178438 IEndB=    14178438 NGot=  2147483648 MDV=  2138032921
 LenX=  2138032921 LenY=  2133321851
 Requested convergence on RMS density matrix=1.00D-08 within 128 cycles.
 Requested convergence on MAX density matrix=1.00D-06.
 Requested convergence on             energy=1.00D-06.
 No special actions if energy rises.
 Fock matrices will be formed incrementally for  20 cycles.

 Cycle   1  Pass 1  IDiag  1:
 FoFJK:  IHMeth= 1 ICntrl=       0 DoSepK=T KAlg= 0 I1Cent=   0 FoldK=F
 IRaf=         1 NMat=   1 IRICut=       1 DoRegI=T DoRafI=F ISym2E= 0.
 FoFCou: FMM=T IPFlag=           0 FMFlag=      100000 FMFlg1=        2001
         NFxFlg=           0 DoJE=T BraDBF=F KetDBF=F FulRan=T
         wScrn=  0.000000 ICntrl=     500 IOpCl=  0 I1Cent=           0 NGrid=           0
         NMat0=    1 NMatS0=      1 NMatT0=    0 NMatD0=    1 NMtDS0=    0 NMtDT0=    0
 Symmetry not used in FoFCou.
 FMM levels:  10  Number of levels for PrismC:   9
 Defaulting to unpruned grid for atomic number  46.
 Defaulting to unpruned grid for atomic number  46.
 Defaulting to unpruned grid for atomic number  46.
 Defaulting to unpruned grid for atomic number  46.
 Defaulting to unpruned grid for atomic number  46.
 Defaulting to unpruned grid for atomic number  46.
 Defaulting to unpruned grid for atomic number  46.
 Defaulting to unpruned grid for atomic number  46.
 Inv3:  Mode=1 IEnd=   118654563.
 Iteration    1 A*A^-1 deviation from unit magnitude is 8.88D-15 for   6251.
 Iteration    1 A*A^-1 deviation from orthogonality  is 6.79D-15 for   4966   4718.
 Iteration    1 A^-1*A deviation from unit magnitude is 8.22D-15 for   6251.
 Iteration    1 A^-1*A deviation from orthogonality  is 3.12D-07 for   5370   5277.
 Iteration    2 A*A^-1 deviation from unit magnitude is 8.10D-15 for   1570.
 Iteration    2 A*A^-1 deviation from orthogonality  is 4.68D-15 for   4852    282.
 Iteration    2 A^-1*A deviation from unit magnitude is 1.22D-15 for   3536.
 Iteration    2 A^-1*A deviation from orthogonality  is 9.40D-16 for   6245    699.
 E= -3582.38964664101    
 DIIS: error= 4.41D-02 at cycle   1 NSaved=   1.
 NSaved= 1 IEnMin= 1 EnMin= -3582.38964664101     IErMin= 1 ErrMin= 4.41D-02
 ErrMax= 4.41D-02  0.00D+00 EMaxC= 1.00D-01 BMatC= 1.58D+01 BMatP= 1.58D+01
 IDIUse=3 WtCom= 5.59D-01 WtEn= 4.41D-01
 Coeff-Com:  0.100D+01
 Coeff-En:   0.100D+01
 Coeff:      0.100D+01
 Gap=     0.157 Goal=   None    Shift=    0.000
 GapD=    0.157 DampG=1.000 DampE=0.250 DampFc=0.2500 IDamp=-1.
 Damping current iteration by 2.50D-01
 RMSDP=1.53D-01 MaxDP=4.71D+01              OVMax= 9.86D-01

 Cycle   2  Pass 1  IDiag  1:
 RMSU=  3.72D-02    CP:  2.29D+00
 E= -3578.25237432698     Delta-E=        4.137272314032 Rises=F Damp=T
 DIIS: error= 2.17D-02 at cycle   2 NSaved=   2.
 NSaved= 2 IEnMin= 1 EnMin= -3582.38964664101     IErMin= 2 ErrMin= 2.17D-02
 ErrMax= 2.17D-02  0.00D+00 EMaxC= 1.00D-01 BMatC= 4.91D+00 BMatP= 1.58D+01
 IDIUse=3 WtCom= 7.83D-01 WtEn= 2.17D-01
 Coeff-Com:  0.891D-01 0.911D+00
 Coeff-En:   0.626D+00 0.374D+00
 Coeff:      0.205D+00 0.795D+00
 Gap=     0.107 Goal=   None    Shift=    0.000
 RMSDP=3.90D-02 MaxDP=1.23D+01 DE= 4.14D+00 OVMax= 9.72D-01

 Cycle   3  Pass 1  IDiag  1:
 RMSU=  3.14D-03    CP:  5.66D-01  4.76D-03
 E= -3594.29181176190     Delta-E=      -16.039437434925 Rises=F Damp=F
 DIIS: error= 1.41D-02 at cycle   3 NSaved=   3.
 NSaved= 3 IEnMin= 3 EnMin= -3594.29181176190     IErMin= 3 ErrMin= 1.41D-02
 ErrMax= 1.41D-02  0.00D+00 EMaxC= 1.00D-01 BMatC= 1.65D+00 BMatP= 4.91D+00
 IDIUse=3 WtCom= 8.59D-01 WtEn= 1.41D-01
 Coeff-Com:  0.408D-01 0.281D+00 0.678D+00
 Coeff-En:   0.000D+00 0.000D+00 0.100D+01
 Coeff:      0.351D-01 0.241D+00 0.724D+00
 Gap=     0.326 Goal=   None    Shift=    0.000
 RMSDP=1.66D-03 MaxDP=2.76D-01 DE=-1.60D+01 OVMax= 2.73D-01

 Cycle   4  Pass 1  IDiag  1:
 RMSU=  1.42D-03    CP:  5.73D-01 -2.48D-03  7.39D-01
 E= -3594.94862274306     Delta-E=       -0.656810981158 Rises=F Damp=F
 DIIS: error= 1.31D-02 at cycle   4 NSaved=   4.
 NSaved= 4 IEnMin= 4 EnMin= -3594.94862274306     IErMin= 4 ErrMin= 1.31D-02
 ErrMax= 1.31D-02  0.00D+00 EMaxC= 1.00D-01 BMatC= 1.02D+00 BMatP= 1.65D+00
 IDIUse=3 WtCom= 8.69D-01 WtEn= 1.31D-01
 Coeff-Com: -0.321D-01 0.108D+00 0.416D+00 0.508D+00
 Coeff-En:   0.000D+00 0.000D+00 0.336D+00 0.664D+00
 Coeff:     -0.279D-01 0.939D-01 0.405D+00 0.529D+00
 Gap=     0.357 Goal=   None    Shift=    0.000
 RMSDP=7.31D-04 MaxDP=1.86D-01 DE=-6.57D-01 OVMax= 1.07D-01

 Cycle   5  Pass 1  IDiag  1:
 RMSU=  4.27D-04    CP:  5.48D-01 -1.23D-03  8.52D-01  6.90D-01
 E= -3595.67372306191     Delta-E=       -0.725100318852 Rises=F Damp=F
 DIIS: error= 1.75D-03 at cycle   5 NSaved=   5.
 NSaved= 5 IEnMin= 5 EnMin= -3595.67372306191     IErMin= 5 ErrMin= 1.75D-03
 ErrMax= 1.75D-03  0.00D+00 EMaxC= 1.00D-01 BMatC= 2.61D-02 BMatP= 1.02D+00
 IDIUse=3 WtCom= 9.83D-01 WtEn= 1.75D-02
 Coeff-Com: -0.114D-01 0.148D-01 0.921D-01 0.180D+00 0.725D+00
 Coeff-En:   0.000D+00 0.000D+00 0.000D+00 0.000D+00 0.100D+01
 Coeff:     -0.112D-01 0.145D-01 0.905D-01 0.177D+00 0.730D+00
 Gap=     0.295 Goal=   None    Shift=    0.000
 RMSDP=2.19D-04 MaxDP=7.23D-02 DE=-7.25D-01 OVMax= 3.82D-02

 Cycle   6  Pass 1  IDiag  1:
 RMSU=  1.71D-04    CP:  5.38D-01 -2.59D-03  8.44D-01  7.58D-01  9.14D-01
 E= -3595.69133359559     Delta-E=       -0.017610533678 Rises=F Damp=F
 DIIS: error= 9.39D-04 at cycle   6 NSaved=   6.
 NSaved= 6 IEnMin= 6 EnMin= -3595.69133359559     IErMin= 6 ErrMin= 9.39D-04
 ErrMax= 9.39D-04  0.00D+00 EMaxC= 1.00D-01 BMatC= 6.34D-03 BMatP= 2.61D-02
 IDIUse=3 WtCom= 9.91D-01 WtEn= 9.39D-03
 Coeff-Com: -0.261D-02-0.398D-03-0.499D-02 0.461D-02 0.334D+00 0.670D+00
 Coeff-En:   0.000D+00 0.000D+00 0.000D+00 0.000D+00 0.419D-01 0.958D+00
 Coeff:     -0.258D-02-0.394D-03-0.495D-02 0.457D-02 0.331D+00 0.673D+00
 Gap=     0.292 Goal=   None    Shift=    0.000
 RMSDP=7.17D-05 MaxDP=1.19D-02 DE=-1.76D-02 OVMax= 1.54D-02

 Cycle   7  Pass 1  IDiag  1:
 RMSU=  6.01D-05    CP:  5.38D-01 -2.48D-03  8.45D-01  7.51D-01  9.96D-01
                    CP:  1.06D+00
 E= -3595.69670241114     Delta-E=       -0.005368815544 Rises=F Damp=F
 DIIS: error= 3.17D-04 at cycle   7 NSaved=   7.
 NSaved= 7 IEnMin= 7 EnMin= -3595.69670241114     IErMin= 7 ErrMin= 3.17D-04
 ErrMax= 3.17D-04  0.00D+00 EMaxC= 1.00D-01 BMatC= 3.76D-04 BMatP= 6.34D-03
 IDIUse=3 WtCom= 9.97D-01 WtEn= 3.17D-03
 Coeff-Com: -0.565D-03-0.649D-04-0.916D-02-0.184D-01 0.484D-01 0.229D+00
 Coeff-Com:  0.751D+00
 Coeff-En:   0.000D+00 0.000D+00 0.000D+00 0.000D+00 0.000D+00 0.000D+00
 Coeff-En:   0.100D+01
 Coeff:     -0.563D-03-0.647D-04-0.913D-02-0.184D-01 0.483D-01 0.228D+00
 Coeff:      0.751D+00
 Gap=     0.293 Goal=   None    Shift=    0.000
 RMSDP=2.58D-05 MaxDP=4.01D-03 DE=-5.37D-03 OVMax= 8.30D-03

 Cycle   8  Pass 1  IDiag  1:
 RMSU=  1.99D-05    CP:  5.37D-01 -2.53D-03  8.45D-01  7.52D-01  1.01D+00
                    CP:  1.15D+00  1.08D+00
 E= -3595.69727098343     Delta-E=       -0.000568572297 Rises=F Damp=F
 DIIS: error= 1.11D-04 at cycle   8 NSaved=   8.
 NSaved= 8 IEnMin= 8 EnMin= -3595.69727098343     IErMin= 8 ErrMin= 1.11D-04
 ErrMax= 1.11D-04  0.00D+00 EMaxC= 1.00D-01 BMatC= 7.03D-05 BMatP= 3.76D-04
 IDIUse=3 WtCom= 9.99D-01 WtEn= 1.11D-03
 Coeff-Com:  0.824D-05 0.508D-04-0.338D-02-0.102D-01-0.323D-01-0.224D-01
 Coeff-Com:  0.299D+00 0.769D+00
 Coeff-En:   0.000D+00 0.000D+00 0.000D+00 0.000D+00 0.000D+00 0.000D+00
 Coeff-En:   0.000D+00 0.100D+01
 Coeff:      0.823D-05 0.507D-04-0.338D-02-0.102D-01-0.323D-01-0.224D-01
 Coeff:      0.299D+00 0.769D+00
 Gap=     0.293 Goal=   None    Shift=    0.000
 RMSDP=1.35D-05 MaxDP=1.41D-03 DE=-5.69D-04 OVMax= 4.98D-03

 Cycle   9  Pass 1  IDiag  1:
 RMSU=  8.95D-06    CP:  5.37D-01 -2.51D-03  8.45D-01  7.52D-01  1.02D+00
                    CP:  1.17D+00  1.18D+00  1.17D+00
 E= -3595.69740924338     Delta-E=       -0.000138259944 Rises=F Damp=F
 DIIS: error= 3.95D-05 at cycle   9 NSaved=   9.
 NSaved= 9 IEnMin= 9 EnMin= -3595.69740924338     IErMin= 9 ErrMin= 3.95D-05
 ErrMax= 3.95D-05  0.00D+00 EMaxC= 1.00D-01 BMatC= 9.65D-06 BMatP= 7.03D-05
 IDIUse=1 WtCom= 1.00D+00 WtEn= 0.00D+00
 Coeff-Com:  0.164D-04 0.600D-04-0.195D-03-0.170D-02-0.180D-01-0.440D-01
 Coeff-Com: -0.746D-02 0.270D+00 0.801D+00
 Coeff:      0.164D-04 0.600D-04-0.195D-03-0.170D-02-0.180D-01-0.440D-01
 Coeff:     -0.746D-02 0.270D+00 0.801D+00
 Gap=     0.293 Goal=   None    Shift=    0.000
 RMSDP=5.97D-06 MaxDP=5.63D-04 DE=-1.38D-04 OVMax= 2.22D-03

 Cycle  10  Pass 1  IDiag  1:
 RMSU=  3.02D-06    CP:  5.37D-01 -2.49D-03  8.45D-01  7.52D-01  1.03D+00
                    CP:  1.17D+00  1.21D+00  1.36D+00  1.24D+00
 E= -3595.69743054994     Delta-E=       -0.000021306560 Rises=F Damp=F
 DIIS: error= 2.62D-05 at cycle  10 NSaved=  10.
 NSaved=10 IEnMin=10 EnMin= -3595.69743054994     IErMin=10 ErrMin= 2.62D-05
 ErrMax= 2.62D-05  0.00D+00 EMaxC= 1.00D-01 BMatC= 1.53D-06 BMatP= 9.65D-06
 IDIUse=1 WtCom= 1.00D+00 WtEn= 0.00D+00
 Coeff-Com:  0.394D-04-0.329D-04 0.468D-03 0.887D-03-0.890D-03-0.121D-01
 Coeff-Com: -0.500D-01-0.282D-01 0.304D+00 0.786D+00
 Coeff:      0.394D-04-0.329D-04 0.468D-03 0.887D-03-0.890D-03-0.121D-01
 Coeff:     -0.500D-01-0.282D-01 0.304D+00 0.786D+00
 Gap=     0.293 Goal=   None    Shift=    0.000
 RMSDP=2.47D-06 MaxDP=4.30D-04 DE=-2.13D-05 OVMax= 9.67D-04

 Cycle  11  Pass 1  IDiag  1:
 RMSU=  1.22D-06    CP:  5.37D-01 -2.48D-03  8.45D-01  7.51D-01  1.03D+00
                    CP:  1.17D+00  1.22D+00  1.42D+00  1.40D+00  1.17D+00
 E= -3595.69743376124     Delta-E=       -0.000003211306 Rises=F Damp=F
 DIIS: error= 6.43D-06 at cycle  11 NSaved=  11.
 NSaved=11 IEnMin=11 EnMin= -3595.69743376124     IErMin=11 ErrMin= 6.43D-06
 ErrMax= 6.43D-06  0.00D+00 EMaxC= 1.00D-01 BMatC= 2.67D-07 BMatP= 1.53D-06
 IDIUse=1 WtCom= 1.00D+00 WtEn= 0.00D+00
 Coeff-Com:  0.451D-04-0.430D-04 0.247D-03 0.642D-03 0.190D-02 0.231D-02
 Coeff-Com: -0.147D-01-0.485D-01-0.177D-01 0.254D+00 0.822D+00
 Coeff:      0.451D-04-0.430D-04 0.247D-03 0.642D-03 0.190D-02 0.231D-02
 Coeff:     -0.147D-01-0.485D-01-0.177D-01 0.254D+00 0.822D+00
 Gap=     0.293 Goal=   None    Shift=    0.000
 RMSDP=1.01D-06 MaxDP=8.98D-05 DE=-3.21D-06 OVMax= 3.90D-04

 Cycle  12  Pass 1  IDiag  1:
 RMSU=  6.91D-07    CP:  5.37D-01 -2.48D-03  8.45D-01  7.51D-01  1.03D+00
                    CP:  1.17D+00  1.22D+00  1.43D+00  1.45D+00  1.28D+00
                    CP:  1.15D+00
 E= -3595.69743435421     Delta-E=       -0.000000592969 Rises=F Damp=F
 DIIS: error= 3.79D-06 at cycle  12 NSaved=  12.
 NSaved=12 IEnMin=12 EnMin= -3595.69743435421     IErMin=12 ErrMin= 3.79D-06
 ErrMax= 3.79D-06  0.00D+00 EMaxC= 1.00D-01 BMatC= 6.65D-08 BMatP= 2.67D-07
 IDIUse=1 WtCom= 1.00D+00 WtEn= 0.00D+00
 Coeff-Com:  0.190D-04-0.149D-04 0.737D-04 0.229D-03 0.402D-03 0.198D-02
 Coeff-Com:  0.905D-03-0.111D-01-0.391D-01-0.289D-01 0.249D+00 0.826D+00
 Coeff:      0.190D-04-0.149D-04 0.737D-04 0.229D-03 0.402D-03 0.198D-02
 Coeff:      0.905D-03-0.111D-01-0.391D-01-0.289D-01 0.249D+00 0.826D+00
 Gap=     0.293 Goal=   None    Shift=    0.000
 RMSDP=4.06D-07 MaxDP=3.72D-05 DE=-5.93D-07 OVMax= 1.86D-04

 Cycle  13  Pass 1  IDiag  1:
 RMSU=  2.38D-07    CP:  5.37D-01 -2.48D-03  8.45D-01  7.51D-01  1.03D+00
                    CP:  1.17D+00  1.22D+00  1.44D+00  1.46D+00  1.31D+00
                    CP:  1.35D+00  1.15D+00
 E= -3595.69743448150     Delta-E=       -0.000000127291 Rises=F Damp=F
 DIIS: error= 1.45D-06 at cycle  13 NSaved=  13.
 NSaved=13 IEnMin=13 EnMin= -3595.69743448150     IErMin=13 ErrMin= 1.45D-06
 ErrMax= 1.45D-06  0.00D+00 EMaxC= 1.00D-01 BMatC= 1.24D-08 BMatP= 6.65D-08
 IDIUse=1 WtCom= 1.00D+00 WtEn= 0.00D+00
 Coeff-Com: -0.165D-05 0.132D-05 0.256D-05 0.198D-04-0.251D-03 0.167D-03
 Coeff-Com:  0.252D-02 0.530D-02-0.800D-02-0.600D-01-0.785D-01 0.325D+00
 Coeff-Com:  0.814D+00
 Coeff:     -0.165D-05 0.132D-05 0.256D-05 0.198D-04-0.251D-03 0.167D-03
 Coeff:      0.252D-02 0.530D-02-0.800D-02-0.600D-01-0.785D-01 0.325D+00
 Coeff:      0.814D+00
 Gap=     0.293 Goal=   None    Shift=    0.000
 RMSDP=1.99D-07 MaxDP=3.16D-05 DE=-1.27D-07 OVMax= 9.28D-05

 Cycle  14  Pass 1  IDiag  1:
 RMSU=  1.01D-07    CP:  5.37D-01 -2.48D-03  8.45D-01  7.51D-01  1.03D+00
                    CP:  1.17D+00  1.22D+00  1.44D+00  1.46D+00  1.33D+00
                    CP:  1.39D+00  1.35D+00  1.17D+00
 E= -3595.69743450813     Delta-E=       -0.000000026628 Rises=F Damp=F
 DIIS: error= 5.56D-07 at cycle  14 NSaved=  14.
 NSaved=14 IEnMin=14 EnMin= -3595.69743450813     IErMin=14 ErrMin= 5.56D-07
 ErrMax= 5.56D-07  0.00D+00 EMaxC= 1.00D-01 BMatC= 2.30D-09 BMatP= 1.24D-08
 IDIUse=1 WtCom= 1.00D+00 WtEn= 0.00D+00
 Coeff-Com: -0.393D-05 0.325D-05-0.105D-04-0.263D-04-0.841D-04-0.114D-03
 Coeff-Com:  0.890D-03 0.302D-02-0.428D-04-0.190D-01-0.495D-01 0.259D-01
 Coeff-Com:  0.325D+00 0.714D+00
 Coeff:     -0.393D-05 0.325D-05-0.105D-04-0.263D-04-0.841D-04-0.114D-03
 Coeff:      0.890D-03 0.302D-02-0.428D-04-0.190D-01-0.495D-01 0.259D-01
 Coeff:      0.325D+00 0.714D+00
 Gap=     0.293 Goal=   None    Shift=    0.000
 RMSDP=6.53D-08 MaxDP=6.21D-06 DE=-2.66D-08 OVMax= 3.30D-05

 Cycle  15  Pass 1  IDiag  1:
 RMSU=  4.61D-08    CP:  5.37D-01 -2.48D-03  8.45D-01  7.51D-01  1.03D+00
                    CP:  1.17D+00  1.22D+00  1.44D+00  1.46D+00  1.32D+00
                    CP:  1.40D+00  1.39D+00  1.28D+00  1.17D+00
 E= -3595.69743451071     Delta-E=       -0.000000002579 Rises=F Damp=F
 DIIS: error= 3.30D-07 at cycle  15 NSaved=  15.
 NSaved=15 IEnMin=15 EnMin= -3595.69743451071     IErMin=15 ErrMin= 3.30D-07
 ErrMax= 3.30D-07  0.00D+00 EMaxC= 1.00D-01 BMatC= 5.72D-10 BMatP= 2.30D-09
 IDIUse=1 WtCom= 1.00D+00 WtEn= 0.00D+00
 Coeff-Com: -0.123D-05 0.857D-06-0.853D-05-0.228D-04 0.907D-04 0.531D-04
 Coeff-Com:  0.672D-04-0.426D-03-0.139D-02 0.402D-02 0.961D-02-0.426D-01
 Coeff-Com: -0.784D-01 0.150D+00 0.959D+00
 Coeff:     -0.123D-05 0.857D-06-0.853D-05-0.228D-04 0.907D-04 0.531D-04
 Coeff:      0.672D-04-0.426D-03-0.139D-02 0.402D-02 0.961D-02-0.426D-01
 Coeff:     -0.784D-01 0.150D+00 0.959D+00
 Gap=     0.293 Goal=   None    Shift=    0.000
 RMSDP=6.14D-08 MaxDP=5.51D-06 DE=-2.58D-09 OVMax= 2.22D-05

 Cycle  16  Pass 1  IDiag  1:
 RMSU=  4.50D-08    CP:  5.37D-01 -2.48D-03  8.45D-01  7.51D-01  1.03D+00
                    CP:  1.17D+00  1.22D+00  1.44D+00  1.46D+00  1.33D+00
                    CP:  1.41D+00  1.40D+00  1.35D+00  1.41D+00  1.52D+00
 E= -3595.69743451328     Delta-E=       -0.000000002576 Rises=F Damp=F
 DIIS: error= 1.24D-07 at cycle  16 NSaved=  16.
 NSaved=16 IEnMin=16 EnMin= -3595.69743451328     IErMin=16 ErrMin= 1.24D-07
 ErrMax= 1.24D-07  0.00D+00 EMaxC= 1.00D-01 BMatC= 1.00D-10 BMatP= 5.72D-10
 IDIUse=1 WtCom= 1.00D+00 WtEn= 0.00D+00
 Coeff-Com: -0.190D-07-0.125D-06-0.353D-05-0.949D-05 0.468D-04 0.306D-04
 Coeff-Com: -0.212D-04-0.474D-03-0.954D-03 0.349D-02 0.108D-01-0.224D-01
 Coeff-Com: -0.899D-01-0.635D-01 0.447D+00 0.716D+00
 Coeff:     -0.190D-07-0.125D-06-0.353D-05-0.949D-05 0.468D-04 0.306D-04
 Coeff:     -0.212D-04-0.474D-03-0.954D-03 0.349D-02 0.108D-01-0.224D-01
 Coeff:     -0.899D-01-0.635D-01 0.447D+00 0.716D+00
 Gap=     0.293 Goal=   None    Shift=    0.000
 RMSDP=4.79D-08 MaxDP=4.88D-06 DE=-2.58D-09 OVMax= 8.98D-06

 Cycle  17  Pass 1  IDiag  1:
 RMSU=  2.82D-08    CP:  5.37D-01 -2.48D-03  8.45D-01  7.51D-01  1.03D+00
                    CP:  1.17D+00  1.22D+00  1.44D+00  1.46D+00  1.33D+00
                    CP:  1.40D+00  1.42D+00  1.36D+00  1.52D+00  1.97D+00
                    CP:  1.61D+00
 E= -3595.69743451282     Delta-E=        0.000000000460 Rises=F Damp=F
 DIIS: error= 5.35D-08 at cycle  17 NSaved=  17.
 NSaved=17 IEnMin=16 EnMin= -3595.69743451328     IErMin=17 ErrMin= 5.35D-08
 ErrMax= 5.35D-08  0.00D+00 EMaxC= 1.00D-01 BMatC= 1.35D-11 BMatP= 1.00D-10
 IDIUse=1 WtCom= 1.00D+00 WtEn= 0.00D+00
 Coeff-Com:  0.157D-06-0.972D-07 0.260D-06 0.503D-06-0.751D-05-0.196D-04
 Coeff-Com: -0.368D-04-0.126D-05 0.181D-03 0.548D-03 0.105D-02-0.283D-02
 Coeff-Com: -0.175D-01-0.340D-01 0.665D-02 0.242D+00 0.804D+00
 Coeff:      0.157D-06-0.972D-07 0.260D-06 0.503D-06-0.751D-05-0.196D-04
 Coeff:     -0.368D-04-0.126D-05 0.181D-03 0.548D-03 0.105D-02-0.283D-02
 Coeff:     -0.175D-01-0.340D-01 0.665D-02 0.242D+00 0.804D+00
 Gap=     0.293 Goal=   None    Shift=    0.000
 RMSDP=5.27D-08 MaxDP=3.50D-06 DE= 4.60D-10 OVMax= 3.65D-06

 Cycle  18  Pass 1  IDiag  1:
 RMSU=  2.97D-08    CP:  5.37D-01 -2.48D-03  8.45D-01  7.51D-01  1.03D+00
                    CP:  1.17D+00  1.22D+00  1.44D+00  1.46D+00  1.33D+00
                    CP:  1.41D+00  1.42D+00  1.37D+00  1.58D+00  2.26D+00
                    CP:  2.24D+00  2.02D+00
 E= -3595.69743451246     Delta-E=        0.000000000367 Rises=F Damp=F
 DIIS: error= 3.25D-08 at cycle  18 NSaved=  18.
 NSaved=18 IEnMin=16 EnMin= -3595.69743451328     IErMin=18 ErrMin= 3.25D-08
 ErrMax= 3.25D-08  0.00D+00 EMaxC= 1.00D-01 BMatC= 3.20D-12 BMatP= 1.35D-11
 IDIUse=1 WtCom= 1.00D+00 WtEn= 0.00D+00
 Coeff-Com:  0.515D-07-0.546D-09 0.608D-06 0.153D-05-0.103D-04-0.157D-04
 Coeff-Com: -0.211D-04 0.635D-04 0.292D-03-0.117D-03-0.114D-02 0.629D-03
 Coeff-Com:  0.384D-02-0.737D-03-0.510D-01-0.116D-01 0.310D+00 0.750D+00
 Coeff:      0.515D-07-0.546D-09 0.608D-06 0.153D-05-0.103D-04-0.157D-04
 Coeff:     -0.211D-04 0.635D-04 0.292D-03-0.117D-03-0.114D-02 0.629D-03
 Coeff:      0.384D-02-0.737D-03-0.510D-01-0.116D-01 0.310D+00 0.750D+00
 Gap=     0.293 Goal=   None    Shift=    0.000
 RMSDP=6.82D-08 MaxDP=4.22D-06 DE= 3.67D-10 OVMax= 1.04D-06

 Cycle  19  Pass 1  IDiag  1:
 RMSU=  2.89D-08    CP:  5.37D-01 -2.48D-03  8.45D-01  7.51D-01  1.03D+00
                    CP:  1.17D+00  1.22D+00  1.44D+00  1.46D+00  1.33D+00
                    CP:  1.40D+00  1.43D+00  1.38D+00  1.63D+00  2.53D+00
                    CP:  2.90D+00  3.00D+00  2.26D+00
 E= -3595.69743451187     Delta-E=        0.000000000588 Rises=F Damp=F
 DIIS: error= 4.85D-08 at cycle  19 NSaved=  19.
 NSaved=19 IEnMin=16 EnMin= -3595.69743451328     IErMin=18 ErrMin= 3.25D-08
 ErrMax= 4.85D-08  0.00D+00 EMaxC= 1.00D-01 BMatC= 1.94D-12 BMatP= 3.20D-12
 IDIUse=1 WtCom= 1.00D+00 WtEn= 0.00D+00
 Coeff-Com:  0.373D-07-0.208D-08 0.437D-06 0.110D-05-0.646D-05-0.995D-05
 Coeff-Com: -0.158D-04 0.355D-04 0.196D-03-0.403D-04-0.674D-03 0.395D-03
 Coeff-Com:  0.231D-02-0.596D-03-0.343D-01-0.104D-01 0.203D+00 0.509D+00
 Coeff-Com:  0.331D+00
 Coeff:      0.373D-07-0.208D-08 0.437D-06 0.110D-05-0.646D-05-0.995D-05
 Coeff:     -0.158D-04 0.355D-04 0.196D-03-0.403D-04-0.674D-03 0.395D-03
 Coeff:      0.231D-02-0.596D-03-0.343D-01-0.104D-01 0.203D+00 0.509D+00
 Coeff:      0.331D+00
 Gap=     0.293 Goal=   None    Shift=    0.000
 RMSDP=3.86D-08 MaxDP=2.79D-06 DE= 5.88D-10 OVMax= 1.30D-07

 Cycle  20  Pass 1  IDiag  1:
 RMSU=  1.87D-08    CP:  5.37D-01 -2.48D-03  8.45D-01  7.51D-01  1.03D+00
                    CP:  1.17D+00  1.22D+00  1.44D+00  1.46D+00  1.33D+00
                    CP:  1.40D+00  1.43D+00  1.39D+00  1.65D+00  2.68D+00
                    CP:  3.00D+00  3.00D+00  2.98D+00  1.79D+00
 E= -3595.69743451277     Delta-E=       -0.000000000902 Rises=F Damp=F
 DIIS: error= 6.34D-08 at cycle  20 NSaved=  20.
 NSaved=20 IEnMin=16 EnMin= -3595.69743451328     IErMin=18 ErrMin= 3.25D-08
 ErrMax= 6.34D-08  0.00D+00 EMaxC= 1.00D-01 BMatC= 2.53D-12 BMatP= 1.94D-12
 IDIUse=1 WtCom= 1.00D+00 WtEn= 0.00D+00
 Coeff-Com:  0.336D-07 0.189D-09 0.438D-06 0.112D-05-0.589D-05-0.892D-05
 Coeff-Com: -0.156D-04 0.305D-04 0.188D-03-0.311D-04-0.640D-03 0.446D-03
 Coeff-Com:  0.260D-02 0.285D-03-0.340D-01-0.186D-01 0.175D+00 0.512D+00
 Coeff-Com:  0.828D+00-0.465D+00
 Coeff:      0.336D-07 0.189D-09 0.438D-06 0.112D-05-0.589D-05-0.892D-05
 Coeff:     -0.156D-04 0.305D-04 0.188D-03-0.311D-04-0.640D-03 0.446D-03
 Coeff:      0.260D-02 0.285D-03-0.340D-01-0.186D-01 0.175D+00 0.512D+00
 Coeff:      0.828D+00-0.465D+00
 Gap=     0.293 Goal=   None    Shift=    0.000
 RMSDP=2.61D-08 MaxDP=2.43D-06 DE=-9.02D-10 OVMax= 2.18D-08

 Cycle  21  Pass 1  IDiag  1:
 Restarting incremental Fock formation.
 E= -3595.69743451744     Delta-E=       -0.000000004664 Rises=F Damp=F
 DIIS: error= 1.68D-07 at cycle  21 NSaved=  20.
 NSaved=20 IEnMin=20 EnMin= -3595.69743451744     IErMin=17 ErrMin= 3.25D-08
 ErrMax= 1.68D-07  0.00D+00 EMaxC= 1.00D-01 BMatC= 3.86D-11 BMatP= 1.94D-12
 IDIUse=1 WtCom= 1.00D+00 WtEn= 0.00D+00
 Coeff-Com:  0.284D-07 0.391D-06 0.100D-05-0.486D-05-0.718D-05-0.135D-04
 Coeff-Com:  0.241D-04 0.160D-03-0.264D-04-0.548D-03 0.466D-03 0.254D-02
 Coeff-Com:  0.743D-03-0.303D-01-0.217D-01 0.136D+00 0.440D+00 0.796D+00
 Coeff-Com: -0.404D+00 0.807D-01
 Coeff:      0.284D-07 0.391D-06 0.100D-05-0.486D-05-0.718D-05-0.135D-04
 Coeff:      0.241D-04 0.160D-03-0.264D-04-0.548D-03 0.466D-03 0.254D-02
 Coeff:      0.743D-03-0.303D-01-0.217D-01 0.136D+00 0.440D+00 0.796D+00
 Coeff:     -0.404D+00 0.807D-01
 Gap=     0.293 Goal=   None    Shift=    0.000
 RMSDP=3.49D-08 MaxDP=2.01D-06 DE=-4.66D-09 OVMax= 7.52D-08

 Cycle  22  Pass 1  IDiag  1:
 RMSU=  3.48D-08    CP:  1.00D+00
 E= -3595.69743451716     Delta-E=        0.000000000271 Rises=F Damp=F
 DIIS: error= 1.73D-07 at cycle  22 NSaved=  20.
 NSaved=20 IEnMin=19 EnMin= -3595.69743451744     IErMin=16 ErrMin= 3.25D-08
 ErrMax= 1.73D-07  0.00D+00 EMaxC= 1.00D-01 BMatC= 3.39D-11 BMatP= 1.94D-12
 IDIUse=1 WtCom= 1.00D+00 WtEn= 0.00D+00
 Coeff-Com:  0.292D-06 0.785D-06-0.361D-05-0.541D-05-0.973D-05 0.228D-04
 Coeff-Com:  0.132D-03-0.402D-04-0.536D-03 0.332D-03 0.244D-02 0.151D-02
 Coeff-Com: -0.244D-01-0.209D-01 0.103D+00 0.363D+00 0.729D+00-0.289D+00
 Coeff-Com: -0.790D+00 0.926D+00
 Coeff:      0.292D-06 0.785D-06-0.361D-05-0.541D-05-0.973D-05 0.228D-04
 Coeff:      0.132D-03-0.402D-04-0.536D-03 0.332D-03 0.244D-02 0.151D-02
 Coeff:     -0.244D-01-0.209D-01 0.103D+00 0.363D+00 0.729D+00-0.289D+00
 Coeff:     -0.790D+00 0.926D+00
 Gap=     0.293 Goal=   None    Shift=    0.000
 RMSDP=4.50D-08 MaxDP=4.83D-06 DE= 2.71D-10 OVMax= 7.21D-08

 Cycle  23  Pass 1  IDiag  1:
 RMSU=  3.46D-08    CP:  1.00D+00  1.82D+00
 E= -3595.69743451675     Delta-E=        0.000000000411 Rises=F Damp=F
 DIIS: error= 1.59D-07 at cycle  23 NSaved=  20.
 NSaved=20 IEnMin=18 EnMin= -3595.69743451744     IErMin=15 ErrMin= 3.25D-08
 ErrMax= 1.59D-07  0.00D+00 EMaxC= 1.00D-01 BMatC= 3.15D-11 BMatP= 1.94D-12
 IDIUse=1 WtCom= 1.00D+00 WtEn= 0.00D+00
 Coeff-Com:  0.176D-06-0.316D-05-0.357D-05-0.138D-05 0.257D-04 0.943D-04
 Coeff-Com: -0.402D-04-0.392D-03 0.697D-04 0.130D-02 0.800D-03-0.172D-01
 Coeff-Com: -0.133D-01 0.897D-01 0.317D+00 0.682D+00-0.216D+00-0.757D+00
 Coeff-Com:  0.305D+00 0.608D+00
 Coeff:      0.176D-06-0.316D-05-0.357D-05-0.138D-05 0.257D-04 0.943D-04
 Coeff:     -0.402D-04-0.392D-03 0.697D-04 0.130D-02 0.800D-03-0.172D-01
 Coeff:     -0.133D-01 0.897D-01 0.317D+00 0.682D+00-0.216D+00-0.757D+00
 Coeff:      0.305D+00 0.608D+00
 Gap=     0.293 Goal=   None    Shift=    0.000
 RMSDP=2.97D-08 MaxDP=2.72D-06 DE= 4.11D-10 OVMax= 3.63D-08

 Cycle  24  Pass 1  IDiag  1:
 RMSU=  1.83D-08    CP:  1.00D+00  2.27D+00  1.49D+00
 E= -3595.69743451639     Delta-E=        0.000000000360 Rises=F Damp=F
 DIIS: error= 1.73D-07 at cycle  24 NSaved=  20.
 NSaved=20 IEnMin=17 EnMin= -3595.69743451744     IErMin=14 ErrMin= 3.25D-08
 ErrMax= 1.73D-07  0.00D+00 EMaxC= 1.00D-01 BMatC= 3.04D-11 BMatP= 1.94D-12
 IDIUse=1 WtCom= 1.00D+00 WtEn= 0.00D+00
 Coeff-Com: -0.350D-05-0.456D-05 0.444D-06 0.317D-04 0.985D-04-0.203D-04
 Coeff-Com: -0.365D-03-0.160D-03 0.783D-03 0.739D-03-0.141D-01-0.107D-01
 Coeff-Com:  0.854D-01 0.305D+00 0.688D+00-0.211D+00-0.763D+00 0.309D+00
 Coeff-Com:  0.609D+00 0.208D-02
 Coeff:     -0.350D-05-0.456D-05 0.444D-06 0.317D-04 0.985D-04-0.203D-04
 Coeff:     -0.365D-03-0.160D-03 0.783D-03 0.739D-03-0.141D-01-0.107D-01
 Coeff:      0.854D-01 0.305D+00 0.688D+00-0.211D+00-0.763D+00 0.309D+00
 Coeff:      0.609D+00 0.208D-02
 Gap=     0.293 Goal=   None    Shift=    0.000
 RMSDP=1.07D-09 MaxDP=6.90D-08 DE= 3.60D-10 OVMax= 1.97D-08

 Error on total polarization charges =  0.06054
 SCF Done:  E(RwB97XD) =  -3595.69743452     A.U. after   24 cycles
            NFock= 24  Conv=0.11D-08     -V/T= 2.0268
 KE= 3.501994628581D+03 PE=-2.744505985256D+04 EE= 1.083952052229D+04
 SMD-CDS (non-electrostatic) energy       (kcal/mol) =     -10.75
 (included in total energy above)
 Leave Link  502 at Thu Nov  9 20:12:42 2023, MaxMem=  2147483648 cpu:    138225.0
 (Enter /cluster/apps/gaussian/g09/l601.exe)
 Copying SCF densities to generalized density rwf, IOpCl= 0 IROHF=0.

 **********************************************************************

            Population analysis using the SCF density.

 **********************************************************************

 Orbital symmetries:
       Occupied  (A) (A) (A) (A) (A) (A) (A) (A) (A) (A) (A) (A)
                 (A) (A) (A) (A) (A) (A) (A) (A) (A) (A) (A) (A)
                 (A) (A) (A) (A) (A) (A) (A) (A) (A) (A) (A) (A)
                 (A) (A) (A) (A) (A) (A) (A) (A) (A) (A) (A) (A)
                 (A) (A) (A) (A) (A) (A) (A) (A) (A) (A) (A) (A)
                 (A) (A) (A) (A) (A) (A) (A) (A) (A) (A) (A) (A)
                 (A) (A) (A) (A) (A) (A) (A) (A) (A) (A) (A) (A)
                 (A) (A) (A) (A) (A) (A) (A) (A) (A) (A) (A) (A)
                 (A) (A) (A) (A) (A) (A) (A) (A) (A) (A) (A) (A)
                 (A) (A) (A) (A) (A) (A) (A) (A) (A) (A) (A) (A)
                 (A) (A) (A) (A) (A) (A) (A) (A) (A) (A) (A) (A)
                 (A) (A) (A) (A) (A) (A) (A) (A) (A) (A) (A) (A)
                 (A) (A) (A) (A) (A) (A) (A) (A) (A) (A) (A) (A)
                 (A) (A) (A) (A) (A) (A) (A) (A) (A) (A) (A) (A)
                 (A) (A) (A) (A) (A) (A) (A) (A) (A) (A) (A) (A)
                 (A) (A) (A) (A) (A) (A) (A) (A) (A) (A) (A) (A)
                 (A) (A) (A) (A) (A) (A) (A) (A) (A) (A) (A) (A)
                 (A) (A) (A) (A) (A) (A)
       Virtual   (A) (A) (A) (A) (A) (A) (A) (A) (A) (A) (A) (A)
                 (A) (A) (A) (A) (A) (A) (A) (A) (A) (A) (A) (A)
                 (A) (A) (A) (A) (A) (A) (A) (A) (A) (A) (A) (A)
                 (A) (A) (A) (A) (A) (A) (A) (A) (A) (A) (A) (A)
                 (A) (A) (A) (A) (A) (A) (A) (A) (A) (A) (A) (A)
                 (A) (A) (A) (A) (A) (A) (A) (A) (A) (A) (A) (A)
                 (A) (A) (A) (A) (A) (A) (A) (A) (A) (A) (A) (A)
                 (A) (A) (A) (A) (A) (A) (A) (A) (A) (A) (A) (A)
                 (A) (A) (A) (A) (A) (A) (A) (A) (A) (A) (A) (A)
                 (A) (A) (A) (A) (A) (A) (A) (A) (A) (A) (A) (A)
                 (A) (A) (A) (A) (A) (A) (A) (A) (A) (A) (A) (A)
                 (A) (A) (A) (A) (A) (A) (A) (A) (A) (A) (A) (A)
                 (A) (A) (A) (A) (A) (A) (A) (A) (A) (A) (A) (A)
                 (A) (A) (A) (A) (A) (A) (A) (A) (A) (A) (A) (A)
                 (A) (A) (A) (A) (A) (A) (A) (A) (A) (A) (A) (A)
                 (A) (A) (A) (A) (A) (A) (A) (A) (A) (A) (A) (A)
                 (A) (A) (A) (A) (A) (A) (A) (A) (A) (A) (A) (A)
                 (A) (A) (A) (A) (A) (A) (A) (A) (A) (A) (A) (A)
                 (A) (A) (A) (A) (A) (A) (A) (A) (A) (A) (A) (A)
                 (A) (A) (A) (A) (A) (A) (A) (A) (A) (A) (A) (A)
                 (A) (A) (A) (A) (A) (A) (A) (A) (A) (A) (A) (A)
                 (A) (A) (A) (A) (A) (A) (A) (A) (A) (A) (A) (A)
                 (A) (A) (A) (A) (A) (A) (A) (A) (A) (A) (A) (A)
                 (A) (A) (A) (A) (A) (A) (A) (A) (A) (A) (A) (A)
                 (A) (A) (A) (A) (A) (A) (A) (A) (A) (A) (A) (A)
                 (A) (A) (A) (A) (A) (A) (A) (A) (A) (A) (A) (A)
                 (A) (A) (A) (A) (A) (A) (A) (A) (A) (A) (A) (A)
                 (A) (A) (A) (A) (A) (A) (A) (A) (A) (A) (A) (A)
                 (A) (A) (A) (A) (A) (A) (A) (A) (A) (A) (A) (A)
                 (A) (A) (A) (A) (A) (A) (A) (A) (A) (A) (A) (A)
                 (A) (A) (A) (A) (A) (A) (A) (A) (A) (A) (A) (A)
                 (A) (A) (A) (A) (A) (A) (A) (A) (A) (A) (A) (A)
                 (A) (A) (A) (A) (A) (A) (A) (A) (A) (A) (A) (A)
                 (A) (A) (A) (A) (A) (A) (A) (A) (A) (A) (A) (A)
                 (A) (A) (A) (A) (A) (A) (A) (A) (A) (A) (A) (A)
                 (A) (A) (A) (A) (A) (A) (A) (A) (A) (A) (A) (A)
                 (A) (A) (A) (A) (A) (A) (A) (A) (A) (A) (A) (A)
                 (A) (A) (A) (A) (A) (A) (A) (A) (A) (A) (A) (A)
                 (A) (A) (A) (A) (A) (A) (A) (A) (A) (A) (A) (A)
                 (A) (A) (A) (A) (A) (A) (A) (A) (A) (A) (A) (A)
                 (A) (A) (A) (A) (A) (A) (A) (A) (A) (A) (A) (A)
                 (A) (A) (A) (A) (A) (A) (A) (A) (A) (A) (A) (A)
                 (A) (A) (A) (A) (A) (A) (A) (A) (A) (A) (A) (A)
                 (A) (A) (A) (A) (A) (A) (A) (A) (A) (A) (A) (A)
                 (A) (A) (A) (A) (A) (A) (A) (A) (A) (A) (A) (A)
                 (A) (A) (A) (A) (A) (A) (A) (A) (A) (A) (A) (A)
                 (A) (A) (A) (A) (A) (A) (A) (A) (A) (A) (A) (A)
                 (A) (A) (A) (A) (A) (A) (A) (A) (A) (A) (A) (A)
                 (A) (A) (A) (A) (A) (A) (A) (A) (A) (A) (A) (A)
                 (A) (A) (A) (A) (A) (A) (A) (A) (A) (A) (A) (A)
                 (A) (A) (A) (A) (A) (A) (A) (A) (A) (A) (A) (A)
                 (A) (A) (A) (A) (A) (A) (A) (A) (A) (A) (A) (A)
                 (A) (A) (A) (A) (A) (A) (A) (A) (A) (A) (A) (A)
                 (A) (A) (A) (A) (A) (A) (A) (A) (A) (A) (A) (A)
                 (A) (A) (A) (A) (A) (A) (A) (A) (A) (A) (A) (A)
                 (A) (A) (A) (A) (A) (A) (A) (A) (A) (A) (A) (A)
                 (A) (A) (A) (A) (A) (A) (A) (A) (A) (A) (A) (A)
                 (A) (A) (A) (A) (A) (A) (A) (A) (A) (A) (A) (A)
                 (A) (A) (A) (A) (A) (A) (A) (A) (A) (A) (A) (A)
                 (A) (A) (A) (A) (A) (A) (A) (A) (A) (A) (A) (A)
                 (A) (A) (A) (A) (A) (A) (A) (A) (A) (A) (A) (A)
                 (A) (A) (A) (A) (A) (A) (A) (A) (A) (A) (A) (A)
                 (A) (A) (A) (A) (A) (A) (A) (A) (A) (A) (A) (A)
                 (A) (A) (A) (A) (A) (A) (A) (A) (A) (A) (A) (A)
                 (A) (A) (A) (A) (A) (A) (A) (A) (A) (A) (A) (A)
                 (A) (A) (A) (A) (A) (A) (A) (A) (A) (A) (A) (A)
                 (A) (A) (A) (A) (A) (A) (A) (A) (A) (A) (A) (A)
                 (A) (A) (A) (A) (A) (A) (A) (A) (A) (A) (A) (A)
                 (A) (A) (A) (A) (A) (A) (A) (A) (A) (A) (A) (A)
                 (A) (A) (A) (A) (A) (A) (A) (A) (A) (A) (A) (A)
                 (A) (A) (A) (A) (A) (A) (A) (A) (A) (A) (A) (A)
                 (A) (A) (A) (A) (A) (A) (A) (A) (A) (A) (A) (A)
                 (A) (A) (A) (A) (A) (A) (A) (A) (A) (A) (A) (A)
                 (A) (A) (A) (A) (A) (A) (A) (A) (A) (A) (A) (A)
                 (A) (A) (A) (A) (A) (A) (A) (A) (A) (A) (A) (A)
                 (A) (A) (A) (A) (A) (A) (A) (A) (A) (A) (A) (A)
                 (A) (A) (A) (A) (A) (A) (A) (A) (A) (A) (A) (A)
                 (A) (A) (A) (A) (A) (A) (A) (A) (A) (A) (A) (A)
                 (A) (A) (A) (A) (A) (A) (A) (A) (A) (A) (A) (A)
                 (A) (A) (A) (A) (A) (A) (A) (A) (A) (A) (A) (A)
                 (A) (A) (A) (A) (A) (A) (A) (A) (A) (A) (A) (A)
                 (A) (A) (A) (A) (A) (A) (A) (A) (A) (A) (A) (A)
                 (A) (A) (A) (A) (A) (A) (A) (A) (A) (A) (A) (A)
                 (A) (A) (A) (A) (A) (A) (A) (A) (A) (A) (A) (A)
                 (A) (A) (A) (A) (A) (A) (A) (A) (A) (A) (A) (A)
                 (A) (A) (A) (A) (A) (A) (A) (A) (A) (A) (A) (A)
                 (A) (A) (A) (A) (A) (A) (A) (A) (A) (A) (A) (A)
                 (A) (A) (A) (A) (A) (A) (A) (A) (A) (A) (A) (A)
                 (A) (A) (A) (A) (A) (A) (A) (A) (A) (A) (A) (A)
                 (A) (A) (A) (A) (A) (A) (A) (A) (A) (A) (A) (A)
                 (A) (A) (A) (A) (A) (A) (A) (A) (A) (A) (A) (A)
                 (A) (A) (A) (A) (A) (A) (A) (A) (A) (A) (A) (A)
                 (A) (A) (A) (A) (A) (A) (A) (A) (A) (A) (A) (A)
                 (A) (A) (A) (A) (A) (A) (A) (A) (A) (A) (A) (A)
                 (A) (A) (A) (A) (A) (A) (A) (A) (A) (A) (A) (A)
                 (A) (A) (A) (A) (A) (A) (A) (A) (A) (A) (A) (A)
                 (A) (A) (A) (A) (A) (A) (A) (A) (A) (A) (A) (A)
                 (A) (A) (A) (A) (A) (A) (A) (A) (A) (A) (A) (A)
                 (A) (A) (A) (A) (A) (A) (A) (A) (A) (A) (A) (A)
                 (A) (A) (A) (A) (A) (A) (A) (A) (A) (A) (A) (A)
                 (A) (A) (A) (A) (A) (A) (A) (A) (A) (A) (A) (A)
                 (A) (A) (A) (A) (A) (A) (A) (A) (A) (A) (A) (A)
                 (A) (A) (A) (A) (A) (A) (A) (A) (A) (A) (A) (A)
                 (A) (A) (A) (A) (A) (A) (A) (A) (A) (A) (A) (A)
                 (A) (A) (A) (A) (A) (A) (A) (A) (A) (A) (A) (A)
                 (A) (A) (A) (A) (A) (A) (A) (A) (A) (A) (A) (A)
                 (A) (A) (A) (A) (A) (A) (A) (A) (A) (A) (A) (A)
                 (A) (A) (A) (A) (A) (A) (A) (A) (A) (A) (A) (A)
                 (A) (A) (A) (A) (A) (A) (A) (A) (A) (A) (A) (A)
                 (A) (A) (A) (A) (A) (A) (A) (A) (A) (A) (A) (A)
                 (A) (A) (A) (A) (A) (A) (A) (A) (A) (A) (A) (A)
                 (A) (A) (A) (A) (A) (A) (A) (A) (A) (A) (A) (A)
                 (A) (A) (A) (A) (A) (A) (A) (A) (A) (A) (A) (A)
                 (A) (A) (A) (A) (A) (A) (A) (A) (A) (A) (A) (A)
                 (A) (A) (A) (A) (A) (A) (A) (A) (A) (A) (A) (A)
                 (A) (A) (A) (A) (A) (A) (A) (A) (A) (A) (A) (A)
                 (A) (A) (A) (A) (A) (A) (A) (A) (A) (A) (A) (A)
                 (A) (A) (A) (A) (A) (A) (A) (A) (A) (A) (A) (A)
                 (A) (A) (A) (A) (A) (A) (A) (A) (A) (A) (A) (A)
                 (A) (A) (A) (A) (A) (A) (A) (A) (A) (A) (A) (A)
                 (A) (A) (A) (A) (A) (A) (A) (A) (A) (A) (A) (A)
                 (A) (A) (A) (A) (A) (A) (A) (A) (A) (A) (A) (A)
                 (A) (A) (A) (A) (A) (A) (A) (A) (A) (A) (A) (A)
                 (A) (A) (A) (A) (A) (A) (A) (A) (A) (A) (A) (A)
                 (A) (A) (A) (A) (A) (A) (A) (A) (A) (A) (A) (A)
                 (A) (A) (A) (A) (A) (A) (A) (A) (A) (A) (A) (A)
                 (A) (A) (A) (A) (A) (A) (A) (A) (A) (A) (A) (A)
                 (A) (A) (A) (A) (A) (A) (A) (A) (A) (A) (A) (A)
                 (A) (A) (A) (A) (A) (A) (A) (A) (A) (A) (A) (A)
                 (A) (A) (A) (A) (A) (A) (A) (A) (A) (A) (A) (A)
                 (A) (A) (A) (A) (A) (A) (A) (A) (A) (A) (A) (A)
                 (A) (A) (A) (A) (A) (A) (A) (A) (A) (A) (A) (A)
                 (A) (A) (A) (A) (A) (A) (A) (A) (A) (A) (A) (A)
                 (A) (A) (A) (A) (A) (A) (A) (A) (A) (A) (A) (A)
                 (A) (A) (A) (A) (A) (A) (A) (A) (A) (A) (A) (A)
                 (A) (A) (A) (A) (A) (A) (A) (A) (A) (A) (A) (A)
                 (A) (A) (A) (A) (A) (A) (A) (A) (A) (A) (A) (A)
                 (A) (A) (A) (A) (A) (A) (A) (A) (A) (A) (A) (A)
                 (A) (A) (A) (A) (A) (A) (A) (A) (A) (A) (A) (A)
                 (A) (A) (A) (A) (A) (A) (A) (A) (A) (A) (A) (A)
                 (A) (A) (A) (A) (A) (A) (A) (A) (A)
 The electronic state is 1-A.
 Alpha  occ. eigenvalues --  -89.20197 -77.25633 -77.24177 -24.84389 -24.84273
 Alpha  occ. eigenvalues --  -24.84259 -24.84241 -24.84238 -24.83929 -19.22275
 Alpha  occ. eigenvalues --  -19.22161 -14.42270 -10.53962 -10.53670 -10.33902
 Alpha  occ. eigenvalues --  -10.32080 -10.31592 -10.31440 -10.30947 -10.30786
 Alpha  occ. eigenvalues --  -10.30509 -10.30397 -10.30293 -10.30250 -10.30217
 Alpha  occ. eigenvalues --  -10.30200 -10.30027 -10.30009 -10.29850 -10.29839
 Alpha  occ. eigenvalues --  -10.29760 -10.29715 -10.29703 -10.29638 -10.29634
 Alpha  occ. eigenvalues --  -10.29603 -10.29588 -10.29543 -10.29506 -10.29368
 Alpha  occ. eigenvalues --  -10.29358 -10.29295 -10.29288 -10.29210 -10.29190
 Alpha  occ. eigenvalues --  -10.29036 -10.28970 -10.28863 -10.28257 -10.28077
 Alpha  occ. eigenvalues --  -10.27943 -10.27795 -10.27435  -8.20271  -6.70034
 Alpha  occ. eigenvalues --   -6.68720  -6.15123  -6.15043  -6.14982  -4.84719
 Alpha  occ. eigenvalues --   -4.84693  -4.84442  -4.83398  -4.83394  -4.83071
 Alpha  occ. eigenvalues --   -3.58304  -2.26784  -2.26385  -2.23600  -1.42722
 Alpha  occ. eigenvalues --   -1.42594  -1.33602  -1.33452  -1.33329  -1.33059
 Alpha  occ. eigenvalues --   -1.19049  -1.08026  -1.01844  -0.97221  -0.96879
 Alpha  occ. eigenvalues --   -0.96721  -0.96479  -0.96017  -0.94868  -0.90828
 Alpha  occ. eigenvalues --   -0.90653  -0.87734  -0.87372  -0.85770  -0.85473
 Alpha  occ. eigenvalues --   -0.85370  -0.85054  -0.84990  -0.84864  -0.84632
 Alpha  occ. eigenvalues --   -0.84556  -0.83019  -0.82877  -0.80739  -0.79284
 Alpha  occ. eigenvalues --   -0.77614  -0.74399  -0.74213  -0.73684  -0.71379
 Alpha  occ. eigenvalues --   -0.70950  -0.70816  -0.70369  -0.70346  -0.69816
 Alpha  occ. eigenvalues --   -0.69621  -0.69499  -0.69286  -0.69247  -0.69019
 Alpha  occ. eigenvalues --   -0.68750  -0.67894  -0.67381  -0.66311  -0.64744
 Alpha  occ. eigenvalues --   -0.63625  -0.62303  -0.61656  -0.61150  -0.60510
 Alpha  occ. eigenvalues --   -0.60232  -0.59238  -0.58938  -0.58050  -0.57215
 Alpha  occ. eigenvalues --   -0.56904  -0.56605  -0.56238  -0.55939  -0.55782
 Alpha  occ. eigenvalues --   -0.55481  -0.55411  -0.55025  -0.54930  -0.54487
 Alpha  occ. eigenvalues --   -0.54442  -0.54358  -0.54008  -0.53839  -0.53447
 Alpha  occ. eigenvalues --   -0.53152  -0.52879  -0.52805  -0.52623  -0.52459
 Alpha  occ. eigenvalues --   -0.51759  -0.51663  -0.51369  -0.51302  -0.50905
 Alpha  occ. eigenvalues --   -0.50818  -0.50760  -0.50428  -0.50378  -0.50174
 Alpha  occ. eigenvalues --   -0.49672  -0.49504  -0.49181  -0.49062  -0.48886
 Alpha  occ. eigenvalues --   -0.48328  -0.47797  -0.47327  -0.47132  -0.46984
 Alpha  occ. eigenvalues --   -0.46648  -0.46234  -0.45816  -0.45631  -0.45545
 Alpha  occ. eigenvalues --   -0.45076  -0.44606  -0.43440  -0.43205  -0.43137
 Alpha  occ. eigenvalues --   -0.42909  -0.42585  -0.42174  -0.41982  -0.41750
 Alpha  occ. eigenvalues --   -0.41278  -0.40955  -0.40875  -0.40674  -0.39469
 Alpha  occ. eigenvalues --   -0.38706  -0.38072  -0.37658  -0.36593  -0.35928
 Alpha  occ. eigenvalues --   -0.35805  -0.35266  -0.35035  -0.34446  -0.34252
 Alpha  occ. eigenvalues --   -0.33930  -0.33808  -0.33593  -0.33283  -0.32744
 Alpha  occ. eigenvalues --   -0.31772  -0.31453  -0.30759  -0.29806  -0.27958
 Alpha virt. eigenvalues --    0.01311   0.02020   0.02481   0.03107   0.03275
 Alpha virt. eigenvalues --    0.03600   0.04288   0.04673   0.04874   0.05580
 Alpha virt. eigenvalues --    0.06325   0.07219   0.07340   0.08940   0.10701
 Alpha virt. eigenvalues --    0.11329   0.11875   0.12458   0.12952   0.13160
[...]
 Alpha virt. eigenvalues --    3.14230   3.15050   3.15280   3.15491   3.15632
 Alpha virt. eigenvalues --    3.15917   3.16340   3.16847   3.16944   3.17330
 Alpha virt. eigenvalues --    3.17822   3.17999   3.18202   3.18847   3.19161
 Alpha virt. eigenvalues --    3.19666   3.19851   3.19987   3.20338   3.20608
 Alpha virt. eigenvalues --    3.20752   3.20843   3.21235   3.21387   3.21702
 Alpha virt. eigenvalues --    3.21894   3.22321   3.22546   3.22815   3.22997
 Alpha virt. eigenvalues --    3.23233   3.23375   3.23662   3.23964   3.24127
 Alpha virt. eigenvalues --    3.24407   3.24530   3.25032   3.25220   3.25313
 Alpha virt. eigenvalues --    3.25624   3.25929   3.26247   3.26463   3.26605
 Alpha virt. eigenvalues --    3.26831   3.26929   3.27424   3.27841   3.27868
 Alpha virt. eigenvalues --    3.28346   3.28612   3.28839   3.29242   3.29576
 Alpha virt. eigenvalues --    3.29759   3.30041   3.30435   3.30829   3.30928
 Alpha virt. eigenvalues --    3.31120   3.31845   3.32352   3.32671   3.32965
 Alpha virt. eigenvalues --    3.33421   3.33829   3.34038   3.34401   3.34571
 Alpha virt. eigenvalues --    3.34945   3.35265   3.35686   3.36003   3.36417
 Alpha virt. eigenvalues --    3.36600   3.36750   3.36947   3.37316   3.37415
 Alpha virt. eigenvalues --    3.37698   3.37805   3.38158   3.38376   3.38636
 Alpha virt. eigenvalues --    3.38935   3.39601   3.39654   3.39871   3.40472
 Alpha virt. eigenvalues --    3.40695   3.40867   3.41106   3.41206   3.41671
 Alpha virt. eigenvalues --    3.42014   3.42418   3.42442   3.42728   3.42850
 Alpha virt. eigenvalues --    3.43140   3.43420   3.43775   3.44179   3.44460
 Alpha virt. eigenvalues --    3.44515   3.44859   3.45243   3.45656   3.45770
 Alpha virt. eigenvalues --    3.45916   3.46262   3.46469   3.46738   3.47175
 Alpha virt. eigenvalues --    3.47447   3.47531   3.47585   3.47886   3.48446
 Alpha virt. eigenvalues --    3.48554   3.48640   3.48878   3.49190   3.49501
 Alpha virt. eigenvalues --    3.49610   3.49932   3.50052   3.50265   3.50528
 Alpha virt. eigenvalues --    3.50781   3.51185   3.51293   3.51532   3.51862
 Alpha virt. eigenvalues --    3.52105   3.52397   3.52546   3.52750   3.52923
 Alpha virt. eigenvalues --    3.53038   3.53472   3.53952   3.54017   3.54331
 Alpha virt. eigenvalues --    3.54609   3.54789   3.55247   3.55538   3.55754
 Alpha virt. eigenvalues --    3.56063   3.56370   3.56629   3.56707   3.57128
 Alpha virt. eigenvalues --    3.57172   3.57495   3.57752   3.58049   3.58250
 Alpha virt. eigenvalues --    3.59092   3.59129   3.59394   3.59749   3.59866
 Alpha virt. eigenvalues --    3.60090   3.60324   3.60661   3.60969   3.61238
 Alpha virt. eigenvalues --    3.61593   3.61761   3.61901   3.62417   3.62533
 Alpha virt. eigenvalues --    3.62840   3.63127   3.63181   3.63402   3.63647
 Alpha virt. eigenvalues --    3.63940   3.64545   3.64788   3.64834   3.65454
 Alpha virt. eigenvalues --    3.65837   3.66176   3.66344   3.66524   3.67270
 Alpha virt. eigenvalues --    3.67379   3.67935   3.68305   3.68970   3.69301
 Alpha virt. eigenvalues --    3.69521   3.69958   3.70283   3.70430   3.70829
 Alpha virt. eigenvalues --    3.71602   3.71714   3.71964   3.72255   3.72313
 Alpha virt. eigenvalues --    3.72851   3.73317   3.73963   3.74195   3.75384
 Alpha virt. eigenvalues --    3.75636   3.76756   3.77331   3.77573   3.77920
 Alpha virt. eigenvalues --    3.78313   3.78515   3.78752   3.79125   3.79443
 Alpha virt. eigenvalues --    3.80028   3.80978   3.81072   3.81664   3.81955
 Alpha virt. eigenvalues --    3.82716   3.82933   3.83510   3.84251   3.84360
 Alpha virt. eigenvalues --    3.84912   3.85151   3.85512   3.86005   3.86505
 Alpha virt. eigenvalues --    3.87167   3.87554   3.88019   3.88457   3.89232
 Alpha virt. eigenvalues --    3.90361   3.92121   3.92601   3.92972   3.93690
 Alpha virt. eigenvalues --    3.94577   3.95728   3.96084   3.96702   3.97082
 Alpha virt. eigenvalues --    3.97309   3.97936   3.98567   3.98904   3.99325
 Alpha virt. eigenvalues --    3.99996   4.01522   4.01831   4.02157   4.02717
 Alpha virt. eigenvalues --    4.03096   4.03344   4.03570   4.04337   4.05038
 Alpha virt. eigenvalues --    4.05354   4.05511   4.05813   4.06522   4.07565
 Alpha virt. eigenvalues --    4.08155   4.08796   4.09568   4.10489   4.11179
 Alpha virt. eigenvalues --    4.11573   4.12013   4.12263   4.12630   4.13145
 Alpha virt. eigenvalues --    4.13430   4.13617   4.13723   4.14202   4.14731
 Alpha virt. eigenvalues --    4.15030   4.16175   4.16454   4.16678   4.17136
 Alpha virt. eigenvalues --    4.17711   4.18297   4.18678   4.18884   4.19450
 Alpha virt. eigenvalues --    4.19675   4.20353   4.21148   4.21429   4.21556
 Alpha virt. eigenvalues --    4.22097   4.22297   4.22721   4.23326   4.24334
 Alpha virt. eigenvalues --    4.24448   4.25334   4.25471   4.26039   4.26592
 Alpha virt. eigenvalues --    4.27438   4.27843   4.28084   4.28494   4.28865
 Alpha virt. eigenvalues --    4.29116   4.29366   4.29549   4.29772   4.29958
 Alpha virt. eigenvalues --    4.30128   4.30575   4.30836   4.30976   4.31062
 Alpha virt. eigenvalues --    4.31288   4.31415   4.31624   4.32151   4.32262
 Alpha virt. eigenvalues --    4.32761   4.33243   4.33409   4.33685   4.34003
 Alpha virt. eigenvalues --    4.34506   4.34716   4.34987   4.35265   4.35815
 Alpha virt. eigenvalues --    4.35916   4.36352   4.36434   4.36803   4.36925
 Alpha virt. eigenvalues --    4.37070   4.37621   4.37972   4.38220   4.38784
 Alpha virt. eigenvalues --    4.38985   4.39575   4.39826   4.40477   4.40891
 Alpha virt. eigenvalues --    4.41024   4.41366   4.42321   4.43559   4.44302
 Alpha virt. eigenvalues --    4.45015   4.45719   4.46366   4.46589   4.46610
 Alpha virt. eigenvalues --    4.47200   4.48036   4.48913   4.49943   4.50613
 Alpha virt. eigenvalues --    4.51178   4.51881   4.52385   4.53549   4.54935
 Alpha virt. eigenvalues --    4.55641   4.56168   4.57038   4.59304   4.63430
 Alpha virt. eigenvalues --    4.65732   4.67058   4.68389   4.70537   4.70783
 Alpha virt. eigenvalues --    4.71005   4.71607   4.71900   4.72468   4.72578
 Alpha virt. eigenvalues --    4.72952   4.73703   4.74066   4.74677   4.75256
 Alpha virt. eigenvalues --    4.75661   4.76081   4.76468   4.77148   4.78505
 Alpha virt. eigenvalues --    4.79980   4.80126   4.80826   4.81486   4.81752
 Alpha virt. eigenvalues --    4.82637   4.83320   4.84351   4.85874   4.87389
 Alpha virt. eigenvalues --    4.87491   4.88873   4.91100   4.93098   4.94402
 Alpha virt. eigenvalues --    4.95006   4.95838   4.95914   4.96526   4.99497
 Alpha virt. eigenvalues --    5.00513   5.01622   5.02383   5.02750   5.03213
 Alpha virt. eigenvalues --    5.03700   5.04522   5.04992   5.05670   5.06726
 Alpha virt. eigenvalues --    5.09069   5.09215   5.11994   5.13975   5.16095
 Alpha virt. eigenvalues --    5.19105   5.22927   5.23164   5.23416   5.23675
 Alpha virt. eigenvalues --    5.23906   5.24175   5.24877   5.24932   5.25226
 Alpha virt. eigenvalues --    5.25619   5.25829   5.25930   5.26813   5.27493
 Alpha virt. eigenvalues --    5.28012   5.28638   5.30773   5.32674   5.33603
 Alpha virt. eigenvalues --    5.33812   5.35500   5.35653   5.36481   5.37131
 Alpha virt. eigenvalues --    5.37509   5.38012   5.39504   5.39846   5.42772
 Alpha virt. eigenvalues --    5.43052   5.44065   5.44470   5.45824   5.46487
 Alpha virt. eigenvalues --    5.48394   5.48670   5.50044   5.50125   5.50702
 Alpha virt. eigenvalues --    5.51248   5.52636   5.53230   5.56422   5.59651
 Alpha virt. eigenvalues --    5.59760   5.61979   5.64053   5.64196   5.65046
 Alpha virt. eigenvalues --    5.66160   5.66519   5.66958   5.67796   5.68190
 Alpha virt. eigenvalues --    5.72398   5.73482   5.74007   5.79333   5.87192
 Alpha virt. eigenvalues --    5.92551   5.98794   6.09386   6.46388   6.51580
 Alpha virt. eigenvalues --    6.55051   6.61035   6.84704   6.88776   6.88909
 Alpha virt. eigenvalues --    6.89578   6.92688   6.92864   6.92952   6.93201
 Alpha virt. eigenvalues --    6.93388   6.93592   6.94093   6.94164   6.94284
 Alpha virt. eigenvalues --    6.94400   6.94580   6.94803   6.95178   6.95281
 Alpha virt. eigenvalues --    6.95691   6.96035   6.96821   6.97452   7.03495
 Alpha virt. eigenvalues --    7.06332   7.07320   7.07699   7.08211   7.08822
 Alpha virt. eigenvalues --    7.10058   7.15037   7.15202   7.16976   7.17169
 Alpha virt. eigenvalues --    7.17365   7.22117   7.22632   7.44424   7.44852
 Alpha virt. eigenvalues --    7.45874   7.46598   7.50451   7.50854   7.58327
 Alpha virt. eigenvalues --    7.59553   7.69401   7.69792   7.70364   7.70978
 Alpha virt. eigenvalues --    7.97860   8.00938   8.06332   8.08958   8.10983
 Alpha virt. eigenvalues --    8.14464   8.38304   8.39016   8.40497   8.41895
 Alpha virt. eigenvalues --    8.42328   8.45116   8.56081   8.56806   8.57308
 Alpha virt. eigenvalues --    8.59333   8.66135   8.68884   8.78232   8.78876
 Alpha virt. eigenvalues --    8.85679   8.86418   8.86610   8.87369   8.97823
 Alpha virt. eigenvalues --    8.98637   9.03698   9.05180   9.09822   9.10648
 Alpha virt. eigenvalues --    9.10909   9.15225   9.20843   9.23223   9.26071
 Alpha virt. eigenvalues --    9.27958   9.59422   9.65619   9.86230  16.19232
 Alpha virt. eigenvalues --   16.21713  22.21938  22.22692  22.25621  22.26665
 Alpha virt. eigenvalues --   22.37440  22.43965  22.54976  22.56825  22.61801
 Alpha virt. eigenvalues --   22.63545  22.68860  22.69241  22.69837  22.70436
 Alpha virt. eigenvalues --   22.70505  22.71103  22.73545  22.74364  22.76067
 Alpha virt. eigenvalues --   22.77507  22.81805  22.84204  22.85970  22.87432
 Alpha virt. eigenvalues --   22.88213  22.90801  22.91378  22.93069  22.93839
 Alpha virt. eigenvalues --   22.95463  22.96940  22.97294  23.03510  23.16258
 Alpha virt. eigenvalues --   23.19352  23.21154  23.22284  23.23379  23.25485
 Alpha virt. eigenvalues --   23.28279  23.36876  23.73528  32.84913  32.96499
 Alpha virt. eigenvalues --   43.91744  44.06988  57.33553  57.37397  57.45158
 Alpha virt. eigenvalues --   57.52733  57.58068  57.63525 107.15826
          Condensed to atoms (all electrons):
 Mulliken charges:
               1
     1  Pd  -0.085604
     2  S    0.851285
     3  P    0.309929
     4  P    0.443950
     5  O   -0.554108
     6  O   -0.546657
     7  N   -0.324180
     8  C   -0.115009
     9  C   -0.232659
    10  H    0.198015
    11  C   -0.211726
    12  H    0.142500
    13  C   -0.147750
    14  C   -0.314815
    15  H    0.159933
    16  C   -0.066297
    17  C    0.341385
    18  C   -0.035005
    19  C   -0.325107
    20  C    0.150500
    21  C   -0.469052
    22  C    0.151993
    23  C   -0.401304
    24  H    0.177365
    25  H    0.172397
    26  C   -0.306853
    27  H    0.181475
    28  H    0.174339
    29  C   -0.350702
    30  H    0.193762
    31  H    0.176019
    32  C    0.077280
    33  C   -0.219763
    34  H    0.164439
    35  C   -0.175170
    36  H    0.156756
    37  C   -0.155173
    38  H    0.155794
    39  C   -0.149543
    40  H    0.155038
    41  C   -0.233725
    42  H    0.186149
    43  C   -0.048394
    44  C   -0.141972
    45  H    0.240432
    46  C   -0.187169
    47  H    0.155779
    48  C   -0.120485
    49  H    0.162188
    50  C   -0.166582
    51  H    0.160752
    52  C   -0.225791
    53  H    0.178823
    54  C    0.009178
    55  C   -0.190918
    56  H    0.194852
    57  C   -0.218775
    58  H    0.158895
    59  C   -0.113215
    60  H    0.163795
    61  C   -0.184854
    62  H    0.161721
    63  C   -0.171928
    64  H    0.191179
    65  C   -0.154643
    66  C   -0.188669
    67  H    0.180476
    68  C   -0.182906
    69  H    0.161703
    70  C   -0.085331
    71  H    0.162714
    72  C   -0.289475
    73  H    0.155456
    74  C    0.044083
    75  H    0.211290
    76  H    0.180394
    77  H    0.147411
    78  H    0.206963
    79  H    0.169001
    80  C    0.539615
    81  C    0.579956
    82  F   -0.194848
    83  F   -0.187435
    84  F   -0.190369
    85  F   -0.186473
    86  F   -0.199118
    87  F   -0.187409
 Sum of Mulliken charges =   0.00000
 Mulliken charges with hydrogens summed into heavy atoms:
               1
     1  Pd  -0.085604
     2  S    0.851285
     3  P    0.309929
     4  P    0.443950
     5  O   -0.554108
     6  O   -0.546657
     7  N   -0.324180
     8  C   -0.115009
     9  C   -0.034644
    11  C   -0.069225
    13  C   -0.000339
    14  C   -0.154882
    16  C   -0.066297
    17  C    0.341385
    18  C   -0.035005
    19  C   -0.156106
    20  C    0.150500
    21  C   -0.262089
    22  C    0.151993
    23  C    0.128852
    26  C    0.048962
    29  C    0.019078
    32  C    0.077280
    33  C   -0.055323
    35  C   -0.018414
    37  C    0.000621
    39  C    0.005495
    41  C   -0.047576
    43  C   -0.048394
    44  C    0.098459
    46  C   -0.031391
    48  C    0.041703
    50  C   -0.005830
    52  C   -0.046968
    54  C    0.009178
    55  C    0.003934
    57  C   -0.059880
    59  C    0.050579
    61  C   -0.023132
    63  C    0.019251
    65  C   -0.154643
    66  C   -0.008192
    68  C   -0.021203
    70  C    0.077383
    72  C   -0.134019
    74  C    0.255374
    80  C    0.539615
    81  C    0.579956
    82  F   -0.194848
    83  F   -0.187435
    84  F   -0.190369
    85  F   -0.186473
    86  F   -0.199118
    87  F   -0.187409
 Electronic spatial extent (au):  <R**2>=          31005.2097
 Charge=              0.0000 electrons
 Dipole moment (field-independent basis, Debye):
    X=            -12.2782    Y=             -1.3586    Z=              6.3255  Tot=             13.8785
 Quadrupole moment (field-independent basis, Debye-Ang):
   XX=           -326.3712   YY=           -337.8539   ZZ=           -321.4791
   XY=             -2.9856   XZ=              1.8374   YZ=              4.9484
 Traceless Quadrupole moment (field-independent basis, Debye-Ang):
   XX=              2.1968   YY=             -9.2858   ZZ=              7.0890
   XY=             -2.9856   XZ=              1.8374   YZ=              4.9484
 Octapole moment (field-independent basis, Debye-Ang**2):
  XXX=           -189.2764  YYY=             19.9260  ZZZ=              0.1508  XYY=            -92.0895
  XXY=            -15.8632  XXZ=            -35.3495  XZZ=            -10.6369  YZZ=            -73.3188
  YYZ=             69.8303  XYZ=             13.4479
 Hexadecapole moment (field-independent basis, Debye-Ang**3):
 XXXX=         -18037.9426 YYYY=         -14698.2058 ZZZZ=          -6642.8458 XXXY=            -49.0821
 XXXZ=            535.0822 YYYX=           -195.6227 YYYZ=              1.9637 ZZZX=            -56.2473
 ZZZY=           -238.2642 XXYY=          -5046.7891 XXZZ=          -4082.3484 YYZZ=          -3474.0530
 XXYZ=             50.9841 YYXZ=             79.8102 ZZXY=            -36.3255
 N-N= 9.507847267175D+03 E-N=-2.744505985408D+04  KE= 3.501994628581D+03
 No NMR shielding tensors so no spin-rotation constants.
 Leave Link  601 at Thu Nov  9 20:12:45 2023, MaxMem=  2147483648 cpu:        21.4
 (Enter /cluster/apps/gaussian/g09/l9999.exe)
 1\1\GINC-EU-G1-001-3\SP\RwB97XD\GenECP\C41H33F6N1O2P2Pd1S1\SROEDIGER\0
 9-Nov-2023\0\\#p sp geom=allcheck scrf(solvent=dichloromethane,smd) wb
 97xd genecp temperature=373 integral(grid=ultrafine)\\title\\0,1\Pd,0,
 0.2006997361,0.4897204967,-0.2757451417\S,0,0.82170555,-1.7228146766,-
 2.5405171493\P,0,0.2235297351,2.2670164583,1.0979906198\P,0,2.38248378
 98,0.0905172987,0.4557802709\O,0,1.9446814062,-0.7813693411,-2.6530289
 981\O,0,1.0934112886,-3.1585442136,-2.634941656\N,0,0.0259104108,-1.34
 00392477,-1.1861356652\C,0,-1.7248250539,0.7067290017,-0.8558687139\C,
 0,-2.1782447225,1.8562693855,-1.5094683737\H,0,-1.5335993437,2.7369354
 616,-1.5729636336\C,0,-3.4419432619,1.9053229531,-2.1018100762\H,0,-3.
 7718492615,2.816826607,-2.6076500136\C,0,-4.2695190453,0.7877883614,-2
 .0535405843\C,0,-3.8350173378,-0.3641534146,-1.4037739863\H,0,-4.47900
 67324,-1.2447418914,-1.3921395919\C,0,-2.5759715742,-0.4195590307,-0.7
 85836552\C,0,-2.1306782288,-1.6958811794,-0.1653228249\C,0,-2.90894582
 83,-2.4655574383,0.7243090964\C,0,-2.4837814017,-3.7258211078,1.146297
 5613\C,0,-1.2694574611,-4.2360467423,0.6970010739\C,0,-0.4467793213,-3
 .47410408,-0.1204430193\C,0,-0.8470314479,-2.1936024378,-0.5234075256\
 C,0,-0.3118975115,-1.3295610564,-3.8585612321\H,0,0.2017747774,-1.5250
 6078,-4.8089476466\H,0,-1.1918320309,-1.9769802799,-3.7534700648\C,0,2
 .5005536018,1.0275887254,2.0519542837\H,0,1.8977308342,0.500036428,2.8
 083872207\H,0,3.5395580056,1.0673619507,2.4132609557\C,0,1.9350356647,
 2.4214810134,1.8028904245\H,0,2.5487639021,2.9588786653,1.0618034635\H
 ,0,1.9149862634,3.0313206834,2.7184606118\C,0,2.7532862847,-1.64770090
 64,0.802180339\C,0,2.2872600444,-2.2542250821,1.9764000267\H,0,1.80315
 57537,-1.6607533508,2.755413817\C,0,2.4104365145,-3.6299411164,2.14918
 97587\H,0,2.0282469477,-4.0990375191,3.05761056\C,0,2.9846414255,-4.41
 09019781,1.1466798169\H,0,3.0532520012,-5.4935237992,1.2721545759\C,0,
 3.4375093526,-3.8120804665,-0.0276437159\H,0,3.8573986931,-4.422041562
 3,-0.8299425445\C,0,3.323358803,-2.4356407866,-0.2056152307\H,0,3.6301
 186936,-1.9769966969,-1.1478432928\C,0,3.7784784108,0.7745607651,-0.48
 62953998\C,0,3.514975175,1.5562367295,-1.6155434184\H,0,2.4856043945,1
 .6502245972,-1.9688134916\C,0,4.5648032879,2.1629089431,-2.3031579866\
 H,0,4.3556325507,2.7668722709,-3.1890403993\C,0,5.8782404311,1.9800891
 488,-1.8746352635\H,0,6.700978433,2.4495605287,-2.419329108\C,0,6.1465
 505594,1.1863622495,-0.7582760252\H,0,7.1771194703,1.0322373265,-0.429
 9248443\C,0,5.1001885558,0.5857763597,-0.0636513857\H,0,5.3121998288,-
 0.0439470286,0.8051802388\C,0,-0.1681690508,3.9086865469,0.4233076151\
 C,0,0.6992507852,4.4673672117,-0.5261713829\H,0,1.6223865409,3.9494859
 953,-0.8020875742\C,0,0.3802358721,5.6745019521,-1.1406036389\H,0,1.06
 30986925,6.1051548165,-1.8764701979\C,0,-0.8128041376,6.3259821875,-0.
 824979679\H,0,-1.0648279718,7.2708611167,-1.3119477259\C,0,-1.68631276
 22,5.7644292518,0.1040099544\H,0,-2.6272631157,6.2644916227,0.34444560
 64\C,0,-1.3694171142,4.5582340431,0.7265507874\H,0,-2.0643659792,4.113
 4230886,1.4418347963\C,0,-0.8251735744,2.0539567789,2.5705262184\C,0,-
 0.7500957115,2.958900588,3.6402198257\H,0,-0.0856746029,3.8257868902,3
 .5846790058\C,0,-1.5345485669,2.7669536858,4.7728076276\H,0,-1.4741709
 556,3.475452371,5.6022373294\C,0,-2.3991352454,1.672426984,4.846446202
 5\H,0,-3.0146835918,1.5237990013,5.7368834487\C,0,-2.4828741774,0.7751
 339707,3.7851201251\H,0,-3.1671566067,-0.0740310864,3.8281272052\C,0,-
 1.6977557396,0.9640262195,2.6477290941\H,0,-1.7690296701,0.2724543143,
 1.8061876093\H,0,-0.5970265898,-0.2743201554,-3.7659497351\H,0,-5.2537
 133463,0.804159747,-2.5275737824\H,0,0.5247872109,-3.8425031863,-0.447
 1809043\H,0,-3.0955813187,-4.3012467832,1.8407589684\C,0,-0.804301192,
 -5.5699815557,1.2050174356\C,0,-4.2170087954,-1.9829992512,1.304993707
 4\F,0,-0.2906532966,-5.4725268993,2.4446277193\F,0,0.1438951389,-6.104
 4627297,0.4342730266\F,0,-1.80915194,-6.4492607488,1.2811463915\F,0,-4
 .2381475845,-0.6637339698,1.5203767089\F,0,-4.4559028448,-2.5591536465
 ,2.4934460824\F,0,-5.2717157309,-2.27583107,0.5306466293\\Version=ES64
 L-G09RevD.01\State=1-A\HF=-3595.6974345\RMSD=1.068e-09\Dipole=1.681277
 6,4.8034281,1.9784571\Quadrupole=-2.2624313,-0.7282703,2.9907016,3.595
 5025,5.1906877,-3.4949405\PG=C01 [X(C41H33F6N1O2P2Pd1S1)]\\@


 ACCORDING TO HEN3RY, LIFE IS MUCH LIKE A SEWER........
 YOU GET OUT OF IT JUST WHAT YOU PUT INTO IT...........
                         TOM LEHRER - (THE 3 IS SILENT)
 Job cpu time:       1 days 14 hours 33 minutes 41.2 seconds.
 File lengths (MBytes):  RWF=   2514 Int=      0 D2E=      0 Chk=    154 Scr=      1
 Normal termination of Gaussian 09 at Thu Nov  9 20:12:46 2023.
