 Entering Gaussian System, Link 0=g09
 Input=dcype_step1-sp.com
 Output=dcype_step1-sp.log
 Initial command:
 /cluster/apps/gaussian/g09/l1.exe "/scratch/264093132.tmpdir/Gau-82209.inp" -scrdir="/scratch/264093132.tmpdir/"
 Entering Link 1 = /cluster/apps/gaussian/g09/l1.exe PID=     82210.
  
 Copyright (c) 1988,1990,1992,1993,1995,1998,2003,2009,2013,
            Gaussian, Inc.  All Rights Reserved.
  
 This is part of the Gaussian(R) 09 program.  It is based on
 the Gaussian(R) 03 system (copyright 2003, Gaussian, Inc.),
 the Gaussian(R) 98 system (copyright 1998, Gaussian, Inc.),
 the Gaussian(R) 94 system (copyright 1995, Gaussian, Inc.),
 the Gaussian 92(TM) system (copyright 1992, Gaussian, Inc.),
 the Gaussian 90(TM) system (copyright 1990, Gaussian, Inc.),
 the Gaussian 88(TM) system (copyright 1988, Gaussian, Inc.),
 the Gaussian 86(TM) system (copyright 1986, Carnegie Mellon
 University), and the Gaussian 82(TM) system (copyright 1983,
 Carnegie Mellon University). Gaussian is a federally registered
 trademark of Gaussian, Inc.
  
 This software contains proprietary and confidential information,
 including trade secrets, belonging to Gaussian, Inc.
  
 This software is provided under written license and may be
 used, copied, transmitted, or stored only in accord with that
 written license.
  
 The following legend is applicable only to US Government
 contracts under FAR:
  
                    RESTRICTED RIGHTS LEGEND
  
 Use, reproduction and disclosure by the US Government is
 subject to restrictions as set forth in subparagraphs (a)
 and (c) of the Commercial Computer Software - Restricted
 Rights clause in FAR 52.227-19.
  
 Gaussian, Inc.
 340 Quinnipiac St., Bldg. 40, Wallingford CT 06492
  
  
 ---------------------------------------------------------------
 Warning -- This program may not be used in any manner that
 competes with the business of Gaussian, Inc. or will provide
 assistance to any competitor of Gaussian, Inc.  The licensee
 of this program is prohibited from giving any competitor of
 Gaussian, Inc. access to this program.  By using this program,
 the user acknowledges that Gaussian, Inc. is engaged in the
 business of creating and licensing software in the field of
 computational chemistry and represents and warrants to the
 licensee that it is not a competitor of Gaussian, Inc. and that
 it will not use this program in any manner prohibited above.
 ---------------------------------------------------------------
  

 Cite this work as:
 Gaussian 09, Revision D.01,
 M. J. Frisch, G. W. Trucks, H. B. Schlegel, G. E. Scuseria, 
 M. A. Robb, J. R. Cheeseman, G. Scalmani, V. Barone, B. Mennucci, 
 G. A. Petersson, H. Nakatsuji, M. Caricato, X. Li, H. P. Hratchian, 
 A. F. Izmaylov, J. Bloino, G. Zheng, J. L. Sonnenberg, M. Hada, 
 M. Ehara, K. Toyota, R. Fukuda, J. Hasegawa, M. Ishida, T. Nakajima, 
 Y. Honda, O. Kitao, H. Nakai, T. Vreven, J. A. Montgomery, Jr., 
 J. E. Peralta, F. Ogliaro, M. Bearpark, J. J. Heyd, E. Brothers, 
 K. N. Kudin, V. N. Staroverov, T. Keith, R. Kobayashi, J. Normand, 
 K. Raghavachari, A. Rendell, J. C. Burant, S. S. Iyengar, J. Tomasi, 
 M. Cossi, N. Rega, J. M. Millam, M. Klene, J. E. Knox, J. B. Cross, 
 V. Bakken, C. Adamo, J. Jaramillo, R. Gomperts, R. E. Stratmann, 
 O. Yazyev, A. J. Austin, R. Cammi, C. Pomelli, J. W. Ochterski, 
 R. L. Martin, K. Morokuma, V. G. Zakrzewski, G. A. Voth, 
 P. Salvador, J. J. Dannenberg, S. Dapprich, A. D. Daniels, 
 O. Farkas, J. B. Foresman, J. V. Ortiz, J. Cioslowski, 
 and D. J. Fox, Gaussian, Inc., Wallingford CT, 2013.
 
 ******************************************
 Gaussian 09:  ES64L-G09RevD.01 24-Apr-2013
                27-Nov-2023 
 ******************************************
 %nprocshared=8
 Will use up to    8 processors via shared memory.
 %mem=16GB
 %oldchk=dcype_step1.chk
 %chk=dcype_step1-sp.chk
 Copying data from "dcype_step1.chk" to current chk file "dcype_step1-sp.chk".
 ----------------------------------------------------------------------
 #p sp geom=allcheck scrf(solvent=dichloromethane,smd) wb97xd genecp te
 mperature=313 integral(grid=ultrafine)
 ----------------------------------------------------------------------
 1/29=7,38=1,112=313000/1;
 2/12=2,40=1/2;
 3/5=7,11=2,14=-4,16=1,17=8,25=1,30=1,70=32201,72=9,74=-58,75=-5/1,2,3;
 4//1;
 5/5=2,38=5,53=9/2;
 6/7=2,8=2,9=2,10=2,28=1/1;
 99/5=1,9=1/99;
 Leave Link    1 at Mon Nov 27 19:27:34 2023, MaxMem=  2147483648 cpu:         1.9
 (Enter /cluster/apps/gaussian/g09/l101.exe)
 Structure from the checkpoint file:  "dcype_step1-sp.chk"
 -----
 title
 -----
 Charge =  0 Multiplicity = 1
 Redundant internal coordinates found in file.
 Pd,0,-0.4820335444,-0.4863447917,-0.0817990515
 Cl,0,-1.2857849536,-1.5911412932,-3.3379998997
 S,0,-0.9097173331,1.3370176086,-2.8259780371
 P,0,-0.17694187,-2.018357472,1.5375201955
 P,0,-2.3925871351,0.2198687693,1.0871560112
 F,0,4.1945020792,1.5820877594,0.2017685254
 F,0,3.7455527551,4.1215302137,0.8997830501
 F,0,1.3264082491,5.2705736507,0.4278139324
 F,0,-0.65209474,3.8364147594,-0.684898869
 O,0,-2.3698947989,1.2710654463,-2.8468849304
 O,0,-0.2183157116,2.4362180268,-3.4984261543
 O,0,4.7914515423,-1.9646825003,-3.0184453272
 N,0,-0.3668476944,1.1830794686,-1.3130088239
 C,0,1.2500275014,-1.0270659816,-0.9976742123
 C,0,1.4821139719,-2.2769867188,-1.5882223602
 H,0,0.7139159329,-3.0519525994,-1.53559429
 C,0,2.6605995655,-2.5721015282,-2.2632659056
 H,0,2.8312392439,-3.5503814748,-2.7174771019
 C,0,3.6647340062,-1.6019520146,-2.3672664925
 C,0,5.82004313,-1.0252658505,-3.1497771922
 H,0,5.5004003265,-0.1412821991,-3.7299790201
 H,0,6.6365716252,-1.5241815254,-3.6873041434
 H,0,6.1941693417,-0.6841227486,-2.1678617044
 C,0,3.4471036087,-0.336150871,-1.8221396319
 H,0,4.1961319769,0.4467910688,-1.9285703865
 C,0,2.2441279972,-0.0442899467,-1.1525760597
 C,0,2.0058303303,1.3431577721,-0.6895931269
 C,0,2.9987237782,2.1071379545,-0.0767213198
 C,0,2.7871074653,3.4321330752,0.2983196601
 C,0,1.552876548,4.0220369892,0.0483794687
 C,0,0.5395654771,3.2724909827,-0.5407473557
 C,0,0.7338986719,1.9348113784,-0.8942999538
 C,0,-0.3705497082,-0.1350349064,-3.7449105653
 H,0,-0.5465533366,0.1117570932,-4.7998621173
 H,0,0.6956851763,-0.3028744363,-3.5448674674
 C,0,-2.655394022,-1.0204403983,2.4415785692
 H,0,-3.227186194,-0.5779640398,3.2725426349
 H,0,-3.2951872752,-1.8008002658,1.9995841501
 C,0,-1.341955081,-1.619354406,2.9276604264
 H,0,-1.5038515748,-2.5120411713,3.5521484244
 H,0,-0.8013525494,-0.8933434357,3.5548150882
 C,0,-4.0488293885,0.2923004146,0.2647566321
 C,0,-4.3154482043,1.6371702708,-0.417606365
 C,0,-4.1328370322,-0.8646404138,-0.7387940562
 H,0,-4.8033527689,0.1375077798,1.060802852
 C,0,-5.6333773039,1.6149739696,-1.1871216083
 H,0,-3.4954791961,1.8500303214,-1.1206698584
 H,0,-4.3396800186,2.4487643024,0.3250892194
 C,0,-5.4528460795,-0.8651405202,-1.500130151
 H,0,-3.3037238993,-0.756265412,-1.4568354529
 H,0,-3.9875715503,-1.8304607179,-0.2269126827
 C,0,-5.6793610061,0.4721483765,-2.1936859174
 H,0,-5.7706152845,2.5817716388,-1.6970589485
 H,0,-6.4755328117,1.5128514919,-0.4766964067
 H,0,-5.4514354318,-1.6875843713,-2.233744086
 H,0,-6.2861774171,-1.0679448488,-0.8016506173
 H,0,-6.6426027816,0.4700590557,-2.7292350888
 H,0,-4.8865654006,0.6264967147,-2.9443824686
 C,0,-2.1413779389,1.8670097806,1.8797810733
 C,0,-3.2176143349,2.2877246312,2.8798457776
 C,0,-0.7495388208,2.0142990565,2.497805908
 H,0,-2.178509894,2.5431289134,1.005910075
 C,0,-2.9862032873,3.7233798702,3.3466082051
 H,0,-3.183853032,1.6140102619,3.7553276324
 H,0,-4.2246111537,2.1865591205,2.4459308785
 C,0,-0.5102234479,3.4476213935,2.9599456073
 H,0,-0.6628135708,1.3381644771,3.3678014425
 H,0,0.0224397314,1.7033495602,1.7775726308
 C,0,-1.5903998257,3.9069409912,3.9329239846
 H,0,-3.7546247925,4.0090030978,4.0830518581
 H,0,-3.1121894156,4.4018302854,2.4842886175
 H,0,0.4874163212,3.5324151549,3.4202192341
 H,0,-0.4994679267,4.1107941203,2.0783349616
 H,0,-1.4299738953,4.9595735263,4.2154791962
 H,0,-1.5106861359,3.3195365429,4.8661385655
 C,0,1.4695509364,-2.0122993174,2.3938980963
 C,0,2.5429545781,-2.8321022544,1.6731906301
 C,0,1.9278243271,-0.5625976442,2.590929059
 H,0,1.2879714987,-2.4666896333,3.3874606355
 C,0,3.8911824601,-2.7320005832,2.3798808612
 H,0,2.6488565917,-2.460704318,0.6426585301
 H,0,2.2395724318,-3.888163609,1.5988275359
 C,0,3.2889490924,-0.4693970887,3.2706976619
 H,0,1.9805938788,-0.0820329338,1.6001514578
 H,0,1.1820753563,0.0043123696,3.1683662524
 C,0,4.3377508756,-1.2832536013,2.5251115029
 H,0,4.6394891319,-3.3140500955,1.818720507
 H,0,3.8206673679,-3.1958204183,3.381145649
 H,0,3.5921990482,0.5880482751,3.3318703856
 H,0,3.2095385838,-0.8350465814,4.3108935971
 H,0,5.3081360237,-1.2281936592,3.0439161967
 H,0,4.4880362568,-0.8428773017,1.5239690479
 C,0,-0.5009439732,-3.759132171,1.0291885308
 C,0,-0.5269399642,-4.7829089061,2.1628440529
 C,0,-1.7572154851,-3.8566666326,0.1602604085
 H,0,0.3654366263,-3.9851671693,0.3818406532
 C,0,-0.7014206494,-6.1955263437,1.609028452
 H,0,-1.3685482017,-4.5579191,2.8418241491
 H,0,0.391278744,-4.7216908368,2.7690231432
 C,0,-1.928533439,-5.2680836343,-0.3893787369
 H,0,-2.6423981306,-3.5963097614,0.7678244244
 H,0,-1.7115483339,-3.115628114,-0.6543557897
 C,0,-1.9417554989,-6.3051507526,0.7284116941
 H,0,-0.7505811606,-6.9202235229,2.4375382695
 H,0,0.19259927,-6.4608283863,1.016708623
 H,0,-2.8523945652,-5.3291914232,-0.9861704726
 H,0,-1.0965482182,-5.4850778321,-1.0833088032
 H,0,-2.0243438784,-7.3209680683,0.3101933185
 H,0,-2.8418441045,-6.1530399809,1.3516554213
 Recover connectivity data from disk.
 NAtoms=    109 NQM=      109 NQMF=       0 NMMI=      0 NMMIF=      0
                NMic=       0 NMicF=      0.
                    Isotopes and Nuclear Properties:
 (Nuclear quadrupole moments (NQMom) in fm**2, nuclear magnetic moments (NMagM)
  in nuclear magnetons)

  Atom         1           2           3           4           5           6           7           8           9          10
 IAtWgt=         106          35          32          31          31          19          19          19          19          16
 AtmWgt= 105.9032000  34.9688527  31.9720718  30.9737634  30.9737634  18.9984033  18.9984033  18.9984033  18.9984033  15.9949146
 NucSpn=           0           3           0           1           1           1           1           1           1           0
 AtZEff=-237.3600000 -14.2400000 -13.6000000 -12.9400000 -12.9400000  -6.7500000  -6.7500000  -6.7500000  -6.7500000  -5.6000000
 NQMom=    0.0000000  -8.1650000   0.0000000   0.0000000   0.0000000   0.0000000   0.0000000   0.0000000   0.0000000   0.0000000
 NMagM=    0.0000000   0.8218740   0.0000000   1.1316000   1.1316000   2.6288670   2.6288670   2.6288670   2.6288670   0.0000000
 AtZNuc=  46.0000000  17.0000000  16.0000000  15.0000000  15.0000000   9.0000000   9.0000000   9.0000000   9.0000000   8.0000000

  Atom        11          12          13          14          15          16          17          18          19          20
 IAtWgt=          16          16          14          12          12           1          12           1          12          12
 AtmWgt=  15.9949146  15.9949146  14.0030740  12.0000000  12.0000000   1.0078250  12.0000000   1.0078250  12.0000000  12.0000000
 NucSpn=           0           0           2           0           0           1           0           1           0           0
 AtZEff=  -5.6000000  -5.6000000  -4.5500000  -3.6000000  -3.6000000  -1.0000000  -3.6000000  -1.0000000  -3.6000000  -3.6000000
 NQMom=    0.0000000   0.0000000   2.0440000   0.0000000   0.0000000   0.0000000   0.0000000   0.0000000   0.0000000   0.0000000
 NMagM=    0.0000000   0.0000000   0.4037610   0.0000000   0.0000000   2.7928460   0.0000000   2.7928460   0.0000000   0.0000000
 AtZNuc=   8.0000000   8.0000000   7.0000000   6.0000000   6.0000000   1.0000000   6.0000000   1.0000000   6.0000000   6.0000000

  Atom        21          22          23          24          25          26          27          28          29          30
 IAtWgt=           1           1           1          12           1          12          12          12          12          12
 AtmWgt=   1.0078250   1.0078250   1.0078250  12.0000000   1.0078250  12.0000000  12.0000000  12.0000000  12.0000000  12.0000000
 NucSpn=           1           1           1           0           1           0           0           0           0           0
 AtZEff=  -1.0000000  -1.0000000  -1.0000000  -3.6000000  -1.0000000  -3.6000000  -3.6000000  -3.6000000  -3.6000000  -3.6000000
 NQMom=    0.0000000   0.0000000   0.0000000   0.0000000   0.0000000   0.0000000   0.0000000   0.0000000   0.0000000   0.0000000
 NMagM=    2.7928460   2.7928460   2.7928460   0.0000000   2.7928460   0.0000000   0.0000000   0.0000000   0.0000000   0.0000000
 AtZNuc=   1.0000000   1.0000000   1.0000000   6.0000000   1.0000000   6.0000000   6.0000000   6.0000000   6.0000000   6.0000000

  Atom        31          32          33          34          35          36          37          38          39          40
 IAtWgt=          12          12          12           1           1          12           1           1          12           1
 AtmWgt=  12.0000000  12.0000000  12.0000000   1.0078250   1.0078250  12.0000000   1.0078250   1.0078250  12.0000000   1.0078250
 NucSpn=           0           0           0           1           1           0           1           1           0           1
 AtZEff=  -3.6000000  -3.6000000  -3.6000000  -1.0000000  -1.0000000  -3.6000000  -1.0000000  -1.0000000  -3.6000000  -1.0000000
 NQMom=    0.0000000   0.0000000   0.0000000   0.0000000   0.0000000   0.0000000   0.0000000   0.0000000   0.0000000   0.0000000
 NMagM=    0.0000000   0.0000000   0.0000000   2.7928460   2.7928460   0.0000000   2.7928460   2.7928460   0.0000000   2.7928460
 AtZNuc=   6.0000000   6.0000000   6.0000000   1.0000000   1.0000000   6.0000000   1.0000000   1.0000000   6.0000000   1.0000000

  Atom        41          42          43          44          45          46          47          48          49          50
 IAtWgt=           1          12          12          12           1          12           1           1          12           1
 AtmWgt=   1.0078250  12.0000000  12.0000000  12.0000000   1.0078250  12.0000000   1.0078250   1.0078250  12.0000000   1.0078250
 NucSpn=           1           0           0           0           1           0           1           1           0           1
 AtZEff=  -1.0000000  -3.6000000  -3.6000000  -3.6000000  -1.0000000  -3.6000000  -1.0000000  -1.0000000  -3.6000000  -1.0000000
 NQMom=    0.0000000   0.0000000   0.0000000   0.0000000   0.0000000   0.0000000   0.0000000   0.0000000   0.0000000   0.0000000
 NMagM=    2.7928460   0.0000000   0.0000000   0.0000000   2.7928460   0.0000000   2.7928460   2.7928460   0.0000000   2.7928460
 AtZNuc=   1.0000000   6.0000000   6.0000000   6.0000000   1.0000000   6.0000000   1.0000000   1.0000000   6.0000000   1.0000000

  Atom        51          52          53          54          55          56          57          58          59          60
 IAtWgt=           1          12           1           1           1           1           1           1          12          12
 AtmWgt=   1.0078250  12.0000000   1.0078250   1.0078250   1.0078250   1.0078250   1.0078250   1.0078250  12.0000000  12.0000000
 NucSpn=           1           0           1           1           1           1           1           1           0           0
 AtZEff=  -1.0000000  -3.6000000  -1.0000000  -1.0000000  -1.0000000  -1.0000000  -1.0000000  -1.0000000  -3.6000000  -3.6000000
 NQMom=    0.0000000   0.0000000   0.0000000   0.0000000   0.0000000   0.0000000   0.0000000   0.0000000   0.0000000   0.0000000
 NMagM=    2.7928460   0.0000000   2.7928460   2.7928460   2.7928460   2.7928460   2.7928460   2.7928460   0.0000000   0.0000000
 AtZNuc=   1.0000000   6.0000000   1.0000000   1.0000000   1.0000000   1.0000000   1.0000000   1.0000000   6.0000000   6.0000000

  Atom        61          62          63          64          65          66          67          68          69          70
 IAtWgt=          12           1          12           1           1          12           1           1          12           1
 AtmWgt=  12.0000000   1.0078250  12.0000000   1.0078250   1.0078250  12.0000000   1.0078250   1.0078250  12.0000000   1.0078250
 NucSpn=           0           1           0           1           1           0           1           1           0           1
 AtZEff=  -3.6000000  -1.0000000  -3.6000000  -1.0000000  -1.0000000  -3.6000000  -1.0000000  -1.0000000  -3.6000000  -1.0000000
 NQMom=    0.0000000   0.0000000   0.0000000   0.0000000   0.0000000   0.0000000   0.0000000   0.0000000   0.0000000   0.0000000
 NMagM=    0.0000000   2.7928460   0.0000000   2.7928460   2.7928460   0.0000000   2.7928460   2.7928460   0.0000000   2.7928460
 AtZNuc=   6.0000000   1.0000000   6.0000000   1.0000000   1.0000000   6.0000000   1.0000000   1.0000000   6.0000000   1.0000000

  Atom        71          72          73          74          75          76          77          78          79          80
 IAtWgt=           1           1           1           1           1          12          12          12           1          12
 AtmWgt=   1.0078250   1.0078250   1.0078250   1.0078250   1.0078250  12.0000000  12.0000000  12.0000000   1.0078250  12.0000000
 NucSpn=           1           1           1           1           1           0           0           0           1           0
 AtZEff=  -1.0000000  -1.0000000  -1.0000000  -1.0000000  -1.0000000  -3.6000000  -3.6000000  -3.6000000  -1.0000000  -3.6000000
 NQMom=    0.0000000   0.0000000   0.0000000   0.0000000   0.0000000   0.0000000   0.0000000   0.0000000   0.0000000   0.0000000
 NMagM=    2.7928460   2.7928460   2.7928460   2.7928460   2.7928460   0.0000000   0.0000000   0.0000000   2.7928460   0.0000000
 AtZNuc=   1.0000000   1.0000000   1.0000000   1.0000000   1.0000000   6.0000000   6.0000000   6.0000000   1.0000000   6.0000000

  Atom        81          82          83          84          85          86          87          88          89          90
 IAtWgt=           1           1          12           1           1          12           1           1           1           1
 AtmWgt=   1.0078250   1.0078250  12.0000000   1.0078250   1.0078250  12.0000000   1.0078250   1.0078250   1.0078250   1.0078250
 NucSpn=           1           1           0           1           1           0           1           1           1           1
 AtZEff=  -1.0000000  -1.0000000  -3.6000000  -1.0000000  -1.0000000  -3.6000000  -1.0000000  -1.0000000  -1.0000000  -1.0000000
 NQMom=    0.0000000   0.0000000   0.0000000   0.0000000   0.0000000   0.0000000   0.0000000   0.0000000   0.0000000   0.0000000
 NMagM=    2.7928460   2.7928460   0.0000000   2.7928460   2.7928460   0.0000000   2.7928460   2.7928460   2.7928460   2.7928460
 AtZNuc=   1.0000000   1.0000000   6.0000000   1.0000000   1.0000000   6.0000000   1.0000000   1.0000000   1.0000000   1.0000000

  Atom        91          92          93          94          95          96          97          98          99         100
 IAtWgt=           1           1          12          12          12           1          12           1           1          12
 AtmWgt=   1.0078250   1.0078250  12.0000000  12.0000000  12.0000000   1.0078250  12.0000000   1.0078250   1.0078250  12.0000000
 NucSpn=           1           1           0           0           0           1           0           1           1           0
 AtZEff=  -1.0000000  -1.0000000  -3.6000000  -3.6000000  -3.6000000  -1.0000000  -3.6000000  -1.0000000  -1.0000000  -3.6000000
 NQMom=    0.0000000   0.0000000   0.0000000   0.0000000   0.0000000   0.0000000   0.0000000   0.0000000   0.0000000   0.0000000
 NMagM=    2.7928460   2.7928460   0.0000000   0.0000000   0.0000000   2.7928460   0.0000000   2.7928460   2.7928460   0.0000000
 AtZNuc=   1.0000000   1.0000000   6.0000000   6.0000000   6.0000000   1.0000000   6.0000000   1.0000000   1.0000000   6.0000000

  Atom       101         102         103         104         105         106         107         108         109
 IAtWgt=           1           1          12           1           1           1           1           1           1
 AtmWgt=   1.0078250   1.0078250  12.0000000   1.0078250   1.0078250   1.0078250   1.0078250   1.0078250   1.0078250
 NucSpn=           1           1           0           1           1           1           1           1           1
 AtZEff=  -1.0000000  -1.0000000  -3.6000000  -1.0000000  -1.0000000  -1.0000000  -1.0000000  -1.0000000  -1.0000000
 NQMom=    0.0000000   0.0000000   0.0000000   0.0000000   0.0000000   0.0000000   0.0000000   0.0000000   0.0000000
 NMagM=    2.7928460   2.7928460   0.0000000   2.7928460   2.7928460   2.7928460   2.7928460   2.7928460   2.7928460
 AtZNuc=   1.0000000   1.0000000   6.0000000   1.0000000   1.0000000   1.0000000   1.0000000   1.0000000   1.0000000
 Leave Link  101 at Mon Nov 27 19:27:34 2023, MaxMem=  2147483648 cpu:         2.6
 (Enter /cluster/apps/gaussian/g09/l202.exe)
 Stoichiometry    C40H56ClF4NO3P2PdS
 Framework group  C1[X(C40H56ClF4NO3P2PdS)]
 Deg. of freedom   321
 Full point group                 C1      NOp   1
 RotChk:  IX=2 Diff= 7.11D-15
 Largest Abelian subgroup         C1      NOp   1
 Largest concise Abelian subgroup C1      NOp   1
                         Standard orientation:                         
 ---------------------------------------------------------------------
 Center     Atomic      Atomic             Coordinates (Angstroms)
 Number     Number       Type             X           Y           Z
 ---------------------------------------------------------------------
      1         46           0        0.199041    0.478309   -0.111073
      2         17           0        0.459537    1.836462   -3.360227
      3         16           0        1.070015   -1.064035   -2.921884
      4         15           0       -0.511722    1.802921    1.563012
      5         15           0        2.284828    0.408495    0.965972
      6          9           0       -3.544256   -2.994803    0.281396
      7          9           0       -2.270665   -5.263901    0.886964
      8          9           0        0.366406   -5.561626    0.293220
      9          9           0        1.726167   -3.547096   -0.847891
     10          8           0        2.428638   -0.529396   -2.994064
     11          8           0        0.740742   -2.316587   -3.600969
     12          8           0       -5.393591    0.220682   -2.808316
     13          7           0        0.573763   -1.118467   -1.386224
     14          6           0       -1.653474    0.445097   -0.946735
     15          6           0       -2.301736    1.562385   -1.491102
     16          1           0       -1.822694    2.543063   -1.443568
     17          6           0       -3.541010    1.471760   -2.113670
     18          1           0       -4.037626    2.349659   -2.532147
     19          6           0       -4.182535    0.230987   -2.209704
     20          6           0       -6.069351   -0.998470   -2.929847
     21          1           0       -5.507825   -1.722142   -3.547278
     22          1           0       -7.025952   -0.781524   -3.422208
     23          1           0       -6.269920   -1.458163   -1.945489
     24          6           0       -3.544828   -0.905259   -1.710651
     25          1           0       -4.005545   -1.886412   -1.812864
     26          6           0       -2.283685   -0.803551   -1.094353
     27          6           0       -1.590859   -2.046881   -0.681715
     28          6           0       -2.256579   -3.100621   -0.055964
     29          6           0       -1.612985   -4.292050    0.271654
     30          6           0       -0.266790   -4.447270   -0.040513
     31          6           0        0.423936   -3.400976   -0.643718
     32          6           0       -0.206455   -2.192310   -0.950126
     33          6           0        0.045311    0.169542   -3.776487
     34          1           0        0.244755    0.010093   -4.844010
     35          1           0       -1.008221   -0.019489   -3.532804
     36          6           0        2.193406    1.644944    2.346092
     37          1           0        2.913327    1.397527    3.142164
     38          1           0        2.527478    2.597285    1.904394
     39          6           0        0.779817    1.779245    2.897297
     40          1           0        0.672800    2.666052    3.541661
     41          1           0        0.530194    0.907368    3.521945
     42          6           0        3.838109    0.888615    0.081932
     43          6           0        4.493499   -0.286619   -0.649279
     44          6           0        3.500508    2.026808   -0.889266
     45          1           0        4.536833    1.265956    0.854172
     46          6           0        5.698699    0.172842   -1.465350
     47          1           0        3.755697   -0.741568   -1.327974
     48          1           0        4.810675   -1.058815    0.067645
     49          6           0        4.715027    2.466278   -1.697886
     50          1           0        2.719731    1.668010   -1.579491
     51          1           0        3.074497    2.885381   -0.344014
     52          6           0        5.329556    1.285439   -2.438591
     53          1           0        6.117519   -0.689282   -2.008397
     54          1           0        6.493488    0.530062   -0.783395
     55          1           0        4.416335    3.255968   -2.406250
     56          1           0        5.468502    2.916106   -1.024556
     57          1           0        6.216146    1.607437   -3.008615
     58          1           0        4.596497    0.895411   -3.164122
     59          6           0        2.612973   -1.244124    1.718040
     60          6           0        3.810358   -1.310680    2.665274
     61          6           0        1.371509   -1.843366    2.381774
     62          1           0        2.827419   -1.857632    0.823732
     63          6           0        4.074711   -2.751485    3.097389
     64          1           0        3.599945   -0.698385    3.560998
     65          1           0        4.710881   -0.882452    2.198115
     66          6           0        1.627432   -3.284442    2.809628
     67          1           0        1.109989   -1.245807    3.274020
     68          1           0        0.509547   -1.786899    1.699711
     69          6           0        2.839789   -3.385812    3.728518
     70          1           0        4.925863   -2.785402    3.796525
     71          1           0        4.374442   -3.338671    2.211310
     72          1           0        0.731644   -3.694585    3.303262
     73          1           0        1.792081   -3.901050    1.909719
     74          1           0        3.039727   -4.438260    3.985397
     75          1           0        2.616278   -2.870974    4.681026
     76          6           0       -2.028994    1.251131    2.478310
     77          6           0       -3.339980    1.691669    1.821855
     78          6           0       -1.986536   -0.271887    2.648848
     79          1           0       -1.959896    1.723572    3.477626
     80          6           0       -4.551499    1.149726    2.573965
     81          1           0       -3.365888    1.322815    0.785311
     82          1           0       -3.396659    2.790170    1.767825
     83          6           0       -3.213662   -0.811030    3.374741
     84          1           0       -1.925271   -0.727511    1.646840
     85          1           0       -1.073198   -0.576694    3.181640
     86          6           0       -4.500565   -0.367762    2.692361
     87          1           0       -5.471418    1.467766    2.057974
     88          1           0       -4.590126    1.595070    3.585305
     89          1           0       -3.156993   -1.910583    3.415549
     90          1           0       -3.210527   -0.456333    4.421734
     91          1           0       -5.377580   -0.741917    3.244349
     92          1           0       -4.544920   -0.816706    1.684748
     93          6           0       -0.788667    3.563030    1.095045
     94          6           0       -1.043988    4.521660    2.256857
     95          6           0        0.329569    4.075469    0.184154
     96          1           0       -1.709324    3.507455    0.486711
     97          6           0       -1.358591    5.923687    1.739179
     98          1           0       -0.145699    4.569703    2.897723
     99          1           0       -1.865836    4.157115    2.894038
    100          6           0        0.012545    5.475269   -0.329273
    101          1           0        1.277310    4.105292    0.751044
    102          1           0        0.489249    3.372810   -0.649870
    103          6           0       -0.259837    6.442605    0.817552
    104          1           0       -1.509090    6.611785    2.586470
    105          1           0       -2.315611    5.895437    1.187985
    106          1           0        0.840178    5.841380   -0.957285
    107          1           0       -0.874726    5.423014   -0.985659
    108          1           0       -0.527499    7.437273    0.426906
    109          1           0        0.667812    6.579413    1.402771
 ---------------------------------------------------------------------
 Rotational constants (GHZ):      0.0525465      0.0507545      0.0413749
 Leave Link  202 at Mon Nov 27 19:27:34 2023, MaxMem=  2147483648 cpu:         0.0
 (Enter /cluster/apps/gaussian/g09/l301.exe)
 General basis read from cards:  (5D, 7F)
 Centers:      14     15     17     19     20     24     26     27     28     29
 Centers:      30     31     32     33     36     39     42     43     44     46
 Centers:      49     52     59     60     61     63     66     69     76     77
 Centers:      78     80     83     86     93     94     95     97    100    103
 Centers:      16     18     21     22     23     25     34     35     37     38
 Centers:      40     41     45     47     48     50     51     53     54     55
 Centers:      56     57     58     62     64     65     67     68     70     71
 Centers:      72     73     74     75     79     81     82     84     85     87
 Centers:      88     89     90     91     92     96     98     99    101    102
 Centers:     104    105    106    107    108    109      3      6      7      8
 Centers:       9     13      4      5      2     10     11     12      1
 def2tzvp
 ****
 ======================================================================================================
                                       Pseudopotential Parameters
 ======================================================================================================
  Center     Atomic      Valence      Angular      Power
  Number     Number     Electrons     Momentum     of R      Exponent        Coefficient   SO-Coeffient
 ======================================================================================================
    1         46           18
                                      G and up 
                                                     2        1.0000000        0.00000000    0.00000000
                                      S - G
                                                     2       12.4300000      240.22904000    0.00000000
                                                     2        6.1707590       35.17194300    0.00000000
                                      P - G
                                                     2       11.0800000      170.41727600    0.00000000
                                                     2        5.8295540       28.47213300    0.00000000
                                      D - G
                                                     2        9.5100000       69.01384500    0.00000000
                                                     2        4.1397810       11.75086200    0.00000000
                                      F - G
                                                     2       13.2700000      -31.92955400    0.00000000
                                                     2        6.6300000       -5.39821700    0.00000000
    2         17
                                   No pseudopotential on this center.
    3         16
                                   No pseudopotential on this center.
    4         15
                                   No pseudopotential on this center.
    5         15
                                   No pseudopotential on this center.
    6          9
                                   No pseudopotential on this center.
    7          9
                                   No pseudopotential on this center.
    8          9
                                   No pseudopotential on this center.
    9          9
                                   No pseudopotential on this center.
   10          8
                                   No pseudopotential on this center.
   11          8
                                   No pseudopotential on this center.
   12          8
                                   No pseudopotential on this center.
   13          7
                                   No pseudopotential on this center.
   14          6
                                   No pseudopotential on this center.
   15          6
                                   No pseudopotential on this center.
   16          1
                                   No pseudopotential on this center.
   17          6
                                   No pseudopotential on this center.
   18          1
                                   No pseudopotential on this center.
   19          6
                                   No pseudopotential on this center.
   20          6
                                   No pseudopotential on this center.
   21          1
                                   No pseudopotential on this center.
   22          1
                                   No pseudopotential on this center.
   23          1
                                   No pseudopotential on this center.
   24          6
                                   No pseudopotential on this center.
   25          1
                                   No pseudopotential on this center.
   26          6
                                   No pseudopotential on this center.
   27          6
                                   No pseudopotential on this center.
   28          6
                                   No pseudopotential on this center.
   29          6
                                   No pseudopotential on this center.
   30          6
                                   No pseudopotential on this center.
   31          6
                                   No pseudopotential on this center.
   32          6
                                   No pseudopotential on this center.
   33          6
                                   No pseudopotential on this center.
   34          1
                                   No pseudopotential on this center.
   35          1
                                   No pseudopotential on this center.
   36          6
                                   No pseudopotential on this center.
   37          1
                                   No pseudopotential on this center.
   38          1
                                   No pseudopotential on this center.
   39          6
                                   No pseudopotential on this center.
   40          1
                                   No pseudopotential on this center.
   41          1
                                   No pseudopotential on this center.
   42          6
                                   No pseudopotential on this center.
   43          6
                                   No pseudopotential on this center.
   44          6
                                   No pseudopotential on this center.
   45          1
                                   No pseudopotential on this center.
   46          6
                                   No pseudopotential on this center.
   47          1
                                   No pseudopotential on this center.
   48          1
                                   No pseudopotential on this center.
   49          6
                                   No pseudopotential on this center.
   50          1
                                   No pseudopotential on this center.
   51          1
                                   No pseudopotential on this center.
   52          6
                                   No pseudopotential on this center.
   53          1
                                   No pseudopotential on this center.
   54          1
                                   No pseudopotential on this center.
   55          1
                                   No pseudopotential on this center.
   56          1
                                   No pseudopotential on this center.
   57          1
                                   No pseudopotential on this center.
   58          1
                                   No pseudopotential on this center.
   59          6
                                   No pseudopotential on this center.
   60          6
                                   No pseudopotential on this center.
   61          6
                                   No pseudopotential on this center.
   62          1
                                   No pseudopotential on this center.
   63          6
                                   No pseudopotential on this center.
   64          1
                                   No pseudopotential on this center.
   65          1
                                   No pseudopotential on this center.
   66          6
                                   No pseudopotential on this center.
   67          1
                                   No pseudopotential on this center.
   68          1
                                   No pseudopotential on this center.
   69          6
                                   No pseudopotential on this center.
   70          1
                                   No pseudopotential on this center.
   71          1
                                   No pseudopotential on this center.
   72          1
                                   No pseudopotential on this center.
   73          1
                                   No pseudopotential on this center.
   74          1
                                   No pseudopotential on this center.
   75          1
                                   No pseudopotential on this center.
   76          6
                                   No pseudopotential on this center.
   77          6
                                   No pseudopotential on this center.
   78          6
                                   No pseudopotential on this center.
   79          1
                                   No pseudopotential on this center.
   80          6
                                   No pseudopotential on this center.
   81          1
                                   No pseudopotential on this center.
   82          1
                                   No pseudopotential on this center.
   83          6
                                   No pseudopotential on this center.
   84          1
                                   No pseudopotential on this center.
   85          1
                                   No pseudopotential on this center.
   86          6
                                   No pseudopotential on this center.
   87          1
                                   No pseudopotential on this center.
   88          1
                                   No pseudopotential on this center.
   89          1
                                   No pseudopotential on this center.
   90          1
                                   No pseudopotential on this center.
   91          1
                                   No pseudopotential on this center.
   92          1
                                   No pseudopotential on this center.
   93          6
                                   No pseudopotential on this center.
   94          6
                                   No pseudopotential on this center.
   95          6
                                   No pseudopotential on this center.
   96          1
                                   No pseudopotential on this center.
   97          6
                                   No pseudopotential on this center.
   98          1
                                   No pseudopotential on this center.
   99          1
                                   No pseudopotential on this center.
  100          6
                                   No pseudopotential on this center.
  101          1
                                   No pseudopotential on this center.
  102          1
                                   No pseudopotential on this center.
  103          6
                                   No pseudopotential on this center.
  104          1
                                   No pseudopotential on this center.
  105          1
                                   No pseudopotential on this center.
  106          1
                                   No pseudopotential on this center.
  107          1
                                   No pseudopotential on this center.
  108          1
                                   No pseudopotential on this center.
  109          1
                                   No pseudopotential on this center.
 ======================================================================================================
 Ernie: Thresh=  0.10000D-02 Tol=  0.10000D-05 Strict=F.
 There are  2278 symmetry adapted cartesian basis functions of A   symmetry.
 There are  2012 symmetry adapted basis functions of A   symmetry.
  2012 basis functions,  3246 primitive gaussians,  2278 cartesian basis functions
   222 alpha electrons      222 beta electrons
       nuclear repulsion energy     10619.5534909473 Hartrees.
 IExCor= 4639 DFT=T Ex+Corr=wB97XD ExCW=0 ScaHFX=  1.000000
 ScaDFX=  1.000000  1.000000  1.000000  1.000000 ScalE2=  1.000000  1.000000
 IRadAn=      5 IRanWt=     -1 IRanGd=            0 ICorTp=0 IEmpDi=121
  HFx wShort=  0.000000 wLong=  0.200000 cFull=  0.222036 cShort=  0.000000 cLong=  0.777964
  DFx wShort=  0.000000 wLong=  0.200000 cFull=  0.000000 cShort=  0.000000 cLong=  1.000000
 NAtoms=  109 NActive=  109 NUniq=  109 SFac= 1.00D+00 NAtFMM=   60 NAOKFM=T Big=T
 Integral buffers will be    131072 words long.
 Raffenetti 2 integral format.
 Two-electron integral symmetry is turned on.
 R6Disp:  Grimme-D2 Dispersion energy=       -0.1611232996 Hartrees.
 Nuclear repulsion after empirical dispersion term =    10619.3923676478 Hartrees.
 ------------------------------------------------------------------------------
 Polarizable Continuum Model (PCM)
 =================================
 Model                : PCM (using non-symmetric T matrix).
 Atomic radii         : SMD-Coulomb.
 Polarization charges : Total charges.
 Charge compensation  : None.
 Solution method      : On-the-fly selection.
 Cavity type          : VdW (van der Waals Surface) (Alpha=1.000).
 Cavity algorithm     : GePol (No added spheres)
                        Default sphere list used, NSphG=  109.
                        Lebedev-Laikov grids with approx.  5.0 points / Ang**2.
                        Smoothing algorithm: Karplus/York (Gamma=1.0000).
                        Polarization charges: spherical gaussians, with
                                              point-specific exponents (IZeta= 3).
                        Self-potential: point-specific (ISelfS= 7).
                        Self-field    : sphere-specific E.n sum rule (ISelfD= 2).
 Solvent              : Dichloromethane, Eps=   8.930000 Eps(inf)=   2.028346
 ------------------------------------------------------------------------------
 GePol: Number of generator spheres                  =     109
 GePol: Total number of spheres                      =     109
 GePol: Number of exposed spheres                    =     109 (100.00%)
 GePol: Number of points                             =    7050
 GePol: Average weight of points                     =       0.11
 GePol: Minimum weight of points                     =   0.12D-09
 GePol: Maximum weight of points                     =    0.21501
 GePol: Number of points with low weight             =     593
 GePol: Fraction of low-weight points (<1% of avg)   =       8.41%
 GePol: Cavity surface area                          =    759.322 Ang**2
 GePol: Cavity volume                                =    834.569 Ang**3
 ------------------------------------------------------------------------------
 Atomic radii for non-electrostatic terms: SMD-CDS.
 ------------------------------------------------------------------------------
 PCM non-electrostatic energy =        -0.0178503937 Hartrees.
 Nuclear repulsion after PCM non-electrostatic terms =    10619.3745172541 Hartrees.
 Leave Link  301 at Mon Nov 27 19:27:34 2023, MaxMem=  2147483648 cpu:         0.6
 (Enter /cluster/apps/gaussian/g09/l302.exe)
 NPDir=0 NMtPBC=     1 NCelOv=     1 NCel=       1 NClECP=     1 NCelD=      1
         NCelK=      1 NCelE2=     1 NClLst=     1 CellRange=     0.0.
 One-electron integrals computed using PRISM.
   1 Symmetry operations used in ECPInt.
 ECPInt:  NShTT=  334971 NPrTT= 1017406 LenC2=  253945 LenP2D=  500849.
 LDataN:  DoStor=T MaxTD1= 7 Len=  274
 NBasis=  2012 RedAO= T EigKep=  3.40D-06  NBF=  2012
 NBsUse=  2012 1.00D-06 EigRej= -1.00D+00 NBFU=  2012
 Precomputing XC quadrature grid using
 IXCGrd= 4 IRadAn=           5 IRanWt=          -1 IRanGd=           0 AccXCQ= 0.00D+00.
 Defaulting to unpruned grid for atomic number  46.
 Generated NRdTot=       0 NPtTot=           0 NUsed=           0 NTot=          32
 NSgBfM=  1967  1989  1993  2004  2008 MxSgAt=   109 MxSgA2=   109.
 Leave Link  302 at Mon Nov 27 19:27:52 2023, MaxMem=  2147483648 cpu:       141.7
 (Enter /cluster/apps/gaussian/g09/l303.exe)
 DipDrv:  MaxL=1.
 Leave Link  303 at Mon Nov 27 19:27:53 2023, MaxMem=  2147483648 cpu:         5.8
 (Enter /cluster/apps/gaussian/g09/l401.exe)
 ExpMin= 3.70D-02 ExpMax= 6.95D+04 ExpMxC= 2.37D+03 IAcc=3 IRadAn=         5 AccDes= 0.00D+00
 Harris functional with IExCor= 4639 and IRadAn=       5 diagonalized for initial guess.
 HarFok:  IExCor= 4639 AccDes= 0.00D+00 IRadAn=         5 IDoV= 1 UseB2=F ITyADJ=14
 ICtDFT=  3500011 ScaDFX=  1.000000  1.000000  1.000000  1.000000
 Defaulting to unpruned grid for atomic number  46.
 Defaulting to unpruned grid for atomic number  46.
 Defaulting to unpruned grid for atomic number  46.
 Defaulting to unpruned grid for atomic number  46.
 Defaulting to unpruned grid for atomic number  46.
 Defaulting to unpruned grid for atomic number  46.
 Defaulting to unpruned grid for atomic number  46.
 Defaulting to unpruned grid for atomic number  46.
 FoFCou: FMM=F IPFlag=           0 FMFlag=      100000 FMFlg1=        2001
         NFxFlg=           0 DoJE=T BraDBF=F KetDBF=T FulRan=T
         wScrn=  0.000000 ICntrl=     500 IOpCl=  0 I1Cent=   200000004 NGrid=           0
         NMat0=    1 NMatS0=      1 NMatT0=    0 NMatD0=    1 NMtDS0=    0 NMtDT0=    0
 Petite list used in FoFCou.
 Harris En= -3780.51047359558    
 JPrj=0 DoOrth=F DoCkMO=F.
 Leave Link  401 at Mon Nov 27 19:29:06 2023, MaxMem=  2147483648 cpu:       581.6
 (Enter /cluster/apps/gaussian/g09/l502.exe)
 Closed shell SCF:
 Using DIIS extrapolation, IDIIS=  1040.
 Integral symmetry usage will be decided dynamically.
 IVT=    15621342 IEndB=    15621342 NGot=  2147483648 MDV=  2137070509
 LenX=  2137070509 LenY=  2131878947
 Requested convergence on RMS density matrix=1.00D-08 within 128 cycles.
 Requested convergence on MAX density matrix=1.00D-06.
 Requested convergence on             energy=1.00D-06.
 No special actions if energy rises.
 Fock matrices will be formed incrementally for  20 cycles.

 Cycle   1  Pass 1  IDiag  1:
 FoFJK:  IHMeth= 1 ICntrl=       0 DoSepK=T KAlg= 0 I1Cent=   0 FoldK=F
 IRaf=         1 NMat=   1 IRICut=       1 DoRegI=T DoRafI=F ISym2E= 0.
 FoFCou: FMM=T IPFlag=           0 FMFlag=      100000 FMFlg1=        2001
         NFxFlg=           0 DoJE=T BraDBF=F KetDBF=F FulRan=T
         wScrn=  0.000000 ICntrl=     500 IOpCl=  0 I1Cent=           0 NGrid=           0
         NMat0=    1 NMatS0=      1 NMatT0=    0 NMatD0=    1 NMtDS0=    0 NMtDT0=    0
 Symmetry not used in FoFCou.
 FMM levels:  10  Number of levels for PrismC:   9
 Defaulting to unpruned grid for atomic number  46.
 Defaulting to unpruned grid for atomic number  46.
 Defaulting to unpruned grid for atomic number  46.
 Defaulting to unpruned grid for atomic number  46.
 Defaulting to unpruned grid for atomic number  46.
 Defaulting to unpruned grid for atomic number  46.
 Defaulting to unpruned grid for atomic number  46.
 Defaulting to unpruned grid for atomic number  46.
 Inv3:  Mode=1 IEnd=   149107500.
 Iteration    1 A*A^-1 deviation from unit magnitude is 6.00D-15 for   7022.
 Iteration    1 A*A^-1 deviation from orthogonality  is 4.18D-15 for   5766   1540.
 Iteration    1 A^-1*A deviation from unit magnitude is 6.66D-15 for   7022.
 Iteration    1 A^-1*A deviation from orthogonality  is 3.18D-10 for   5579   5567.
 Iteration    2 A*A^-1 deviation from unit magnitude is 4.22D-15 for    361.
 Iteration    2 A*A^-1 deviation from orthogonality  is 4.23D-15 for   5843    437.
 Iteration    2 A^-1*A deviation from unit magnitude is 1.11D-15 for    321.
 Iteration    2 A^-1*A deviation from orthogonality  is 3.93D-16 for   5875    448.
 E= -3899.06137996011    
 DIIS: error= 4.55D-02 at cycle   1 NSaved=   1.
 NSaved= 1 IEnMin= 1 EnMin= -3899.06137996011     IErMin= 1 ErrMin= 4.55D-02
 ErrMax= 4.55D-02  0.00D+00 EMaxC= 1.00D-01 BMatC= 1.44D+01 BMatP= 1.44D+01
 IDIUse=3 WtCom= 5.45D-01 WtEn= 4.55D-01
 Coeff-Com:  0.100D+01
 Coeff-En:   0.100D+01
 Coeff:      0.100D+01
 Gap=     0.364 Goal=   None    Shift=    0.000
 GapD=    0.364 DampG=1.000 DampE=0.250 DampFc=0.2500 IDamp=-1.
 Damping current iteration by 2.50D-01
 RMSDP=4.57D-02 MaxDP=1.75D+01              OVMax= 9.60D-01

 Cycle   2  Pass 1  IDiag  1:
 RMSU=  1.13D-02    CP:  1.25D+00
 E= -3901.37033110003     Delta-E=       -2.308951139925 Rises=F Damp=T
 DIIS: error= 2.72D-02 at cycle   2 NSaved=   2.
 NSaved= 2 IEnMin= 2 EnMin= -3901.37033110003     IErMin= 2 ErrMin= 2.72D-02
 ErrMax= 2.72D-02  0.00D+00 EMaxC= 1.00D-01 BMatC= 4.13D+00 BMatP= 1.44D+01
 IDIUse=3 WtCom= 7.28D-01 WtEn= 2.72D-01
 Coeff-Com: -0.451D+00 0.145D+01
 Coeff-En:   0.188D+00 0.812D+00
 Coeff:     -0.277D+00 0.128D+01
 Gap=    -0.289 Goal=   None    Shift=    0.000
 RMSDP=1.12D-02 MaxDP=3.69D+00 DE=-2.31D+00 OVMax= 9.27D-01

 Cycle   3  Pass 1  IDiag  1:
 RMSU=  3.48D-03    CP:  5.57D-01  1.74D-01
 E= -3904.16046461123     Delta-E=       -2.790133511195 Rises=F Damp=F
 DIIS: error= 2.50D-02 at cycle   3 NSaved=   3.
 NSaved= 3 IEnMin= 3 EnMin= -3904.16046461123     IErMin= 3 ErrMin= 2.50D-02
 ErrMax= 2.50D-02  0.00D+00 EMaxC= 1.00D-01 BMatC= 2.58D+00 BMatP= 4.13D+00
 IDIUse=3 WtCom= 7.50D-01 WtEn= 2.50D-01
 EnCoef did     3 forward-backward iterations
 Coeff-Com: -0.217D+00 0.688D+00 0.529D+00
 Coeff-En:   0.121D+00 0.147D-03 0.878D+00
 Coeff:     -0.133D+00 0.517D+00 0.616D+00
 Gap=     0.068 Goal=   None    Shift=    0.000
 RMSDP=2.71D-03 MaxDP=4.96D-01 DE=-2.79D+00 OVMax= 4.66D-01

 Cycle   4  Pass 1  IDiag  1:
 RMSU=  2.08D-03    CP:  5.25D-01  6.00D-02  6.68D-01
 E= -3906.46692645702     Delta-E=       -2.306461845794 Rises=F Damp=F
 DIIS: error= 9.49D-03 at cycle   4 NSaved=   4.
 NSaved= 4 IEnMin= 4 EnMin= -3906.46692645702     IErMin= 4 ErrMin= 9.49D-03
 ErrMax= 9.49D-03  0.00D+00 EMaxC= 1.00D-01 BMatC= 8.01D-01 BMatP= 2.58D+00
 IDIUse=3 WtCom= 9.05D-01 WtEn= 9.49D-02
 Coeff-Com: -0.347D-01 0.125D+00 0.335D+00 0.574D+00
 Coeff-En:   0.000D+00 0.000D+00 0.176D+00 0.824D+00
 Coeff:     -0.314D-01 0.113D+00 0.320D+00 0.598D+00
 Gap=     0.328 Goal=   None    Shift=    0.000
 RMSDP=1.04D-03 MaxDP=2.63D-01 DE=-2.31D+00 OVMax= 1.67D-01

 Cycle   5  Pass 1  IDiag  1:
 RMSU=  7.62D-04    CP:  4.85D-01  4.68D-02  7.27D-01  7.17D-01
 E= -3907.18592738357     Delta-E=       -0.719000926543 Rises=F Damp=F
 DIIS: error= 1.57D-03 at cycle   5 NSaved=   5.
 NSaved= 5 IEnMin= 5 EnMin= -3907.18592738357     IErMin= 5 ErrMin= 1.57D-03
 ErrMax= 1.57D-03  0.00D+00 EMaxC= 1.00D-01 BMatC= 3.61D-02 BMatP= 8.01D-01
 IDIUse=3 WtCom= 9.84D-01 WtEn= 1.57D-02
 Coeff-Com:  0.213D-01-0.227D-01 0.762D-01 0.186D+00 0.739D+00
 Coeff-En:   0.000D+00 0.000D+00 0.000D+00 0.000D+00 0.100D+01
 Coeff:      0.210D-01-0.224D-01 0.750D-01 0.183D+00 0.744D+00
 Gap=     0.307 Goal=   None    Shift=    0.000
 RMSDP=4.36D-04 MaxDP=1.26D-01 DE=-7.19D-01 OVMax= 2.95D-02

 Cycle   6  Pass 1  IDiag  1:
 RMSU=  3.07D-04    CP:  4.63D-01  2.50D-02  7.12D-01  7.35D-01  1.09D+00
 E= -3907.21009347578     Delta-E=       -0.024166092211 Rises=F Damp=F
 DIIS: error= 9.57D-04 at cycle   6 NSaved=   6.
 NSaved= 6 IEnMin= 6 EnMin= -3907.21009347578     IErMin= 6 ErrMin= 9.57D-04
 ErrMax= 9.57D-04  0.00D+00 EMaxC= 1.00D-01 BMatC= 1.11D-02 BMatP= 3.61D-02
 IDIUse=3 WtCom= 9.90D-01 WtEn= 9.57D-03
 Coeff-Com:  0.138D-01-0.226D-01-0.100D-02-0.570D-02 0.353D+00 0.662D+00
 Coeff-En:   0.000D+00 0.000D+00 0.000D+00 0.000D+00 0.107D+00 0.893D+00
 Coeff:      0.137D-01-0.224D-01-0.995D-03-0.565D-02 0.351D+00 0.664D+00
 Gap=     0.300 Goal=   None    Shift=    0.000
 RMSDP=1.04D-04 MaxDP=1.77D-02 DE=-2.42D-02 OVMax= 1.92D-02

 Cycle   7  Pass 1  IDiag  1:
 RMSU=  9.05D-05    CP:  4.62D-01  2.39D-02  7.11D-01  7.30D-01  1.14D+00
                    CP:  9.24D-01
 E= -3907.21896053977     Delta-E=       -0.008867063994 Rises=F Damp=F
 DIIS: error= 2.74D-04 at cycle   7 NSaved=   7.
 NSaved= 7 IEnMin= 7 EnMin= -3907.21896053977     IErMin= 7 ErrMin= 2.74D-04
 ErrMax= 2.74D-04  0.00D+00 EMaxC= 1.00D-01 BMatC= 1.13D-03 BMatP= 1.11D-02
 IDIUse=3 WtCom= 9.97D-01 WtEn= 2.74D-03
 Coeff-Com: -0.310D-02 0.397D-02-0.268D-02-0.193D-01 0.495D-01 0.260D+00
 Coeff-Com:  0.712D+00
 Coeff-En:   0.000D+00 0.000D+00 0.000D+00 0.000D+00 0.000D+00 0.000D+00
 Coeff-En:   0.100D+01
 Coeff:     -0.309D-02 0.396D-02-0.268D-02-0.192D-01 0.493D-01 0.259D+00
 Coeff:      0.712D+00
 Gap=     0.299 Goal=   None    Shift=    0.000
 RMSDP=3.52D-05 MaxDP=5.06D-03 DE=-8.87D-03 OVMax= 8.79D-03

 Cycle   8  Pass 1  IDiag  1:
 RMSU=  2.88D-05    CP:  4.61D-01  2.42D-02  7.13D-01  7.25D-01  1.15D+00
                    CP:  9.56D-01  9.00D-01
 E= -3907.21998798975     Delta-E=       -0.001027449978 Rises=F Damp=F
 DIIS: error= 1.10D-04 at cycle   8 NSaved=   8.
 NSaved= 8 IEnMin= 8 EnMin= -3907.21998798975     IErMin= 8 ErrMin= 1.10D-04
 ErrMax= 1.10D-04  0.00D+00 EMaxC= 1.00D-01 BMatC= 1.32D-04 BMatP= 1.13D-03
 IDIUse=3 WtCom= 9.99D-01 WtEn= 1.10D-03
 Coeff-Com: -0.343D-02 0.462D-02-0.136D-02-0.549D-02 0.233D-02 0.510D-01
 Coeff-Com:  0.264D+00 0.688D+00
 Coeff-En:   0.000D+00 0.000D+00 0.000D+00 0.000D+00 0.000D+00 0.000D+00
 Coeff-En:   0.000D+00 0.100D+01
 Coeff:     -0.343D-02 0.461D-02-0.135D-02-0.548D-02 0.232D-02 0.510D-01
 Coeff:      0.264D+00 0.688D+00
 Gap=     0.299 Goal=   None    Shift=    0.000
 RMSDP=1.41D-05 MaxDP=2.81D-03 DE=-1.03D-03 OVMax= 2.96D-03

 Cycle   9  Pass 1  IDiag  1:
 RMSU=  1.16D-05    CP:  4.61D-01  2.47D-02  7.14D-01  7.26D-01  1.15D+00
                    CP:  9.51D-01  9.25D-01  1.11D+00
 E= -3907.22015954361     Delta-E=       -0.000171553864 Rises=F Damp=F
 DIIS: error= 7.13D-05 at cycle   9 NSaved=   9.
 NSaved= 9 IEnMin= 9 EnMin= -3907.22015954361     IErMin= 9 ErrMin= 7.13D-05
 ErrMax= 7.13D-05  0.00D+00 EMaxC= 1.00D-01 BMatC= 3.06D-05 BMatP= 1.32D-04
 IDIUse=1 WtCom= 1.00D+00 WtEn= 0.00D+00
 Coeff-Com: -0.103D-02 0.122D-02-0.129D-02 0.201D-02-0.340D-03-0.289D-01
 Coeff-Com: -0.636D-01 0.205D+00 0.887D+00
 Coeff:     -0.103D-02 0.122D-02-0.129D-02 0.201D-02-0.340D-03-0.289D-01
 Coeff:     -0.636D-01 0.205D+00 0.887D+00
 Gap=     0.299 Goal=   None    Shift=    0.000
 RMSDP=1.15D-05 MaxDP=3.94D-03 DE=-1.72D-04 OVMax= 2.97D-03

 Cycle  10  Pass 1  IDiag  1:
 RMSU=  7.04D-06    CP:  4.61D-01  2.50D-02  7.14D-01  7.28D-01  1.15D+00
                    CP:  9.38D-01  9.34D-01  1.34D+00  1.09D+00
 E= -3907.22022091625     Delta-E=       -0.000061372635 Rises=F Damp=F
 DIIS: error= 3.32D-05 at cycle  10 NSaved=  10.
 NSaved=10 IEnMin=10 EnMin= -3907.22022091625     IErMin=10 ErrMin= 3.32D-05
 ErrMax= 3.32D-05  0.00D+00 EMaxC= 1.00D-01 BMatC= 6.36D-06 BMatP= 3.06D-05
 IDIUse=1 WtCom= 1.00D+00 WtEn= 0.00D+00
 Coeff-Com: -0.858D-04 0.717D-04-0.341D-03 0.210D-02-0.181D-03-0.175D-01
 Coeff-Com: -0.628D-01-0.731D-01 0.346D+00 0.806D+00
 Coeff:     -0.858D-04 0.717D-04-0.341D-03 0.210D-02-0.181D-03-0.175D-01
 Coeff:     -0.628D-01-0.731D-01 0.346D+00 0.806D+00
 Gap=     0.299 Goal=   None    Shift=    0.000
 RMSDP=4.98D-06 MaxDP=8.78D-04 DE=-6.14D-05 OVMax= 1.38D-03

 Cycle  11  Pass 1  IDiag  1:
 RMSU=  2.84D-06    CP:  4.61D-01  2.51D-02  7.14D-01  7.29D-01  1.15D+00
                    CP:  9.35D-01  9.44D-01  1.37D+00  1.30D+00  1.11D+00
 E= -3907.22023268752     Delta-E=       -0.000011771275 Rises=F Damp=F
 DIIS: error= 9.72D-06 at cycle  11 NSaved=  11.
 NSaved=11 IEnMin=11 EnMin= -3907.22023268752     IErMin=11 ErrMin= 9.72D-06
 ErrMax= 9.72D-06  0.00D+00 EMaxC= 1.00D-01 BMatC= 8.70D-07 BMatP= 6.36D-06
 IDIUse=1 WtCom= 1.00D+00 WtEn= 0.00D+00
 Coeff-Com:  0.647D-04-0.635D-04-0.297D-05 0.427D-03-0.917D-03-0.188D-02
 Coeff-Com: -0.118D-01-0.662D-01-0.500D-02 0.320D+00 0.765D+00
 Coeff:      0.647D-04-0.635D-04-0.297D-05 0.427D-03-0.917D-03-0.188D-02
 Coeff:     -0.118D-01-0.662D-01-0.500D-02 0.320D+00 0.765D+00
 Gap=     0.299 Goal=   None    Shift=    0.000
 RMSDP=1.69D-06 MaxDP=5.18D-04 DE=-1.18D-05 OVMax= 5.52D-04

 Cycle  12  Pass 1  IDiag  1:
 RMSU=  9.77D-07    CP:  4.61D-01  2.51D-02  7.14D-01  7.29D-01  1.15D+00
                    CP:  9.34D-01  9.45D-01  1.39D+00  1.31D+00  1.26D+00
                    CP:  1.14D+00
 E= -3907.22023429812     Delta-E=       -0.000001610593 Rises=F Damp=F
 DIIS: error= 4.37D-06 at cycle  12 NSaved=  12.
 NSaved=12 IEnMin=12 EnMin= -3907.22023429812     IErMin=12 ErrMin= 4.37D-06
 ErrMax= 4.37D-06  0.00D+00 EMaxC= 1.00D-01 BMatC= 9.39D-08 BMatP= 8.70D-07
 IDIUse=1 WtCom= 1.00D+00 WtEn= 0.00D+00
 Coeff-Com:  0.292D-04-0.312D-04 0.615D-04-0.143D-03-0.597D-03 0.152D-02
 Coeff-Com:  0.446D-02-0.105D-01-0.388D-01 0.283D-02 0.219D+00 0.822D+00
 Coeff:      0.292D-04-0.312D-04 0.615D-04-0.143D-03-0.597D-03 0.152D-02
 Coeff:      0.446D-02-0.105D-01-0.388D-01 0.283D-02 0.219D+00 0.822D+00
 Gap=     0.299 Goal=   None    Shift=    0.000
 RMSDP=5.96D-07 MaxDP=8.50D-05 DE=-1.61D-06 OVMax= 1.84D-04

 Cycle  13  Pass 1  IDiag  1:
 RMSU=  3.63D-07    CP:  4.61D-01  2.51D-02  7.14D-01  7.29D-01  1.15D+00
                    CP:  9.34D-01  9.46D-01  1.39D+00  1.32D+00  1.28D+00
                    CP:  1.26D+00  1.25D+00
 E= -3907.22023448582     Delta-E=       -0.000000187703 Rises=F Damp=F
 DIIS: error= 1.56D-06 at cycle  13 NSaved=  13.
 NSaved=13 IEnMin=13 EnMin= -3907.22023448582     IErMin=13 ErrMin= 1.56D-06
 ErrMax= 1.56D-06  0.00D+00 EMaxC= 1.00D-01 BMatC= 2.70D-08 BMatP= 9.39D-08
 IDIUse=1 WtCom= 1.00D+00 WtEn= 0.00D+00
 Coeff-Com:  0.986D-05-0.136D-04 0.297D-04-0.137D-03-0.129D-03 0.800D-03
 Coeff-Com:  0.295D-02 0.607D-02-0.112D-01-0.461D-01-0.426D-01 0.344D+00
 Coeff-Com:  0.746D+00
 Coeff:      0.986D-05-0.136D-04 0.297D-04-0.137D-03-0.129D-03 0.800D-03
 Coeff:      0.295D-02 0.607D-02-0.112D-01-0.461D-01-0.426D-01 0.344D+00
 Coeff:      0.746D+00
 Gap=     0.299 Goal=   None    Shift=    0.000
 RMSDP=3.10D-07 MaxDP=6.86D-05 DE=-1.88D-07 OVMax= 8.67D-05

 Cycle  14  Pass 1  IDiag  1:
 RMSU=  1.64D-07    CP:  4.61D-01  2.51D-02  7.14D-01  7.29D-01  1.15D+00
                    CP:  9.34D-01  9.45D-01  1.39D+00  1.32D+00  1.28D+00
                    CP:  1.27D+00  1.46D+00  1.23D+00
 E= -3907.22023453428     Delta-E=       -0.000000048456 Rises=F Damp=F
 DIIS: error= 8.04D-07 at cycle  14 NSaved=  14.
 NSaved=14 IEnMin=14 EnMin= -3907.22023453428     IErMin=14 ErrMin= 8.04D-07
 ErrMax= 8.04D-07  0.00D+00 EMaxC= 1.00D-01 BMatC= 4.67D-09 BMatP= 2.70D-08
 IDIUse=1 WtCom= 1.00D+00 WtEn= 0.00D+00
 Coeff-Com:  0.468D-05-0.647D-05 0.373D-05-0.239D-04 0.254D-04-0.862D-04
 Coeff-Com: -0.103D-05 0.365D-02 0.398D-02-0.157D-01-0.561D-01-0.459D-01
 Coeff-Com:  0.269D+00 0.841D+00
 Coeff:      0.468D-05-0.647D-05 0.373D-05-0.239D-04 0.254D-04-0.862D-04
 Coeff:     -0.103D-05 0.365D-02 0.398D-02-0.157D-01-0.561D-01-0.459D-01
 Coeff:      0.269D+00 0.841D+00
 Gap=     0.299 Goal=   None    Shift=    0.000
 RMSDP=1.45D-07 MaxDP=2.50D-05 DE=-4.85D-08 OVMax= 4.80D-05

 Cycle  15  Pass 1  IDiag  1:
 RMSU=  6.99D-08    CP:  4.61D-01  2.51D-02  7.14D-01  7.29D-01  1.15D+00
                    CP:  9.34D-01  9.45D-01  1.39D+00  1.32D+00  1.27D+00
                    CP:  1.28D+00  1.53D+00  1.42D+00  1.22D+00
 E= -3907.22023454402     Delta-E=       -0.000000009743 Rises=F Damp=F
 DIIS: error= 2.51D-07 at cycle  15 NSaved=  15.
 NSaved=15 IEnMin=15 EnMin= -3907.22023454402     IErMin=15 ErrMin= 2.51D-07
 ErrMax= 2.51D-07  0.00D+00 EMaxC= 1.00D-01 BMatC= 7.34D-10 BMatP= 4.67D-09
 IDIUse=1 WtCom= 1.00D+00 WtEn= 0.00D+00
 Coeff-Com:  0.272D-05-0.362D-05-0.292D-05 0.139D-04 0.136D-04-0.155D-03
 Coeff-Com: -0.400D-03 0.199D-03 0.299D-02 0.194D-02-0.114D-01-0.750D-01
 Coeff-Com: -0.325D-01 0.276D+00 0.838D+00
 Coeff:      0.272D-05-0.362D-05-0.292D-05 0.139D-04 0.136D-04-0.155D-03
 Coeff:     -0.400D-03 0.199D-03 0.299D-02 0.194D-02-0.114D-01-0.750D-01
 Coeff:     -0.325D-01 0.276D+00 0.838D+00
 Gap=     0.299 Goal=   None    Shift=    0.000
 RMSDP=6.81D-08 MaxDP=1.77D-05 DE=-9.74D-09 OVMax= 2.17D-05

 Cycle  16  Pass 1  IDiag  1:
 RMSU=  3.30D-08    CP:  4.61D-01  2.51D-02  7.14D-01  7.29D-01  1.15D+00
                    CP:  9.35D-01  9.45D-01  1.39D+00  1.32D+00  1.27D+00
                    CP:  1.29D+00  1.55D+00  1.48D+00  1.39D+00  1.26D+00
 E= -3907.22023454582     Delta-E=       -0.000000001801 Rises=F Damp=F
 DIIS: error= 1.12D-07 at cycle  16 NSaved=  16.
 NSaved=16 IEnMin=16 EnMin= -3907.22023454582     IErMin=16 ErrMin= 1.12D-07
 ErrMax= 1.12D-07  0.00D+00 EMaxC= 1.00D-01 BMatC= 1.51D-10 BMatP= 7.34D-10
 IDIUse=1 WtCom= 1.00D+00 WtEn= 0.00D+00
 Coeff-Com:  0.703D-06-0.103D-05-0.244D-05 0.942D-05 0.128D-05-0.513D-04
 Coeff-Com: -0.161D-03-0.362D-03 0.760D-03 0.299D-02 0.258D-02-0.251D-01
 Coeff-Com: -0.542D-01-0.770D-02 0.364D+00 0.717D+00
 Coeff:      0.703D-06-0.103D-05-0.244D-05 0.942D-05 0.128D-05-0.513D-04
 Coeff:     -0.161D-03-0.362D-03 0.760D-03 0.299D-02 0.258D-02-0.251D-01
 Coeff:     -0.542D-01-0.770D-02 0.364D+00 0.717D+00
 Gap=     0.299 Goal=   None    Shift=    0.000
 RMSDP=2.95D-08 MaxDP=7.00D-06 DE=-1.80D-09 OVMax= 7.56D-06

 Cycle  17  Pass 1  IDiag  1:
 RMSU=  1.78D-08    CP:  4.61D-01  2.51D-02  7.14D-01  7.29D-01  1.15D+00
                    CP:  9.35D-01  9.45D-01  1.39D+00  1.32D+00  1.27D+00
                    CP:  1.29D+00  1.56D+00  1.49D+00  1.43D+00  1.43D+00
                    CP:  1.32D+00
 E= -3907.22023454652     Delta-E=       -0.000000000702 Rises=F Damp=F
 DIIS: error= 4.52D-08 at cycle  17 NSaved=  17.
 NSaved=17 IEnMin=17 EnMin= -3907.22023454652     IErMin=17 ErrMin= 4.52D-08
 ErrMax= 4.52D-08  0.00D+00 EMaxC= 1.00D-01 BMatC= 2.46D-11 BMatP= 1.51D-10
 IDIUse=1 WtCom= 1.00D+00 WtEn= 0.00D+00
 Coeff-Com: -0.277D-06 0.376D-06-0.232D-07 0.225D-05-0.778D-06 0.772D-05
 Coeff-Com: -0.136D-05-0.189D-03-0.294D-03 0.848D-03 0.315D-02 0.489D-02
 Coeff-Com: -0.168D-01-0.542D-01-0.762D-02 0.284D+00 0.786D+00
 Coeff:     -0.277D-06 0.376D-06-0.232D-07 0.225D-05-0.778D-06 0.772D-05
 Coeff:     -0.136D-05-0.189D-03-0.294D-03 0.848D-03 0.315D-02 0.489D-02
 Coeff:     -0.168D-01-0.542D-01-0.762D-02 0.284D+00 0.786D+00
 Gap=     0.299 Goal=   None    Shift=    0.000
 RMSDP=2.58D-08 MaxDP=2.90D-06 DE=-7.02D-10 OVMax= 3.16D-06

 Cycle  18  Pass 1  IDiag  1:
 RMSU=  1.71D-08    CP:  4.61D-01  2.51D-02  7.14D-01  7.29D-01  1.15D+00
                    CP:  9.35D-01  9.45D-01  1.39D+00  1.32D+00  1.27D+00
                    CP:  1.29D+00  1.55D+00  1.49D+00  1.44D+00  1.53D+00
                    CP:  1.68D+00  1.70D+00
 E= -3907.22023454721     Delta-E=       -0.000000000688 Rises=F Damp=F
 DIIS: error= 2.44D-08 at cycle  18 NSaved=  18.
 NSaved=18 IEnMin=18 EnMin= -3907.22023454721     IErMin=18 ErrMin= 2.44D-08
 ErrMax= 2.44D-08  0.00D+00 EMaxC= 1.00D-01 BMatC= 4.03D-12 BMatP= 2.46D-11
 IDIUse=1 WtCom= 1.00D+00 WtEn= 0.00D+00
 Coeff-Com: -0.217D-06 0.285D-06 0.131D-06-0.689D-06 0.194D-05 0.109D-04
 Coeff-Com:  0.149D-04-0.100D-04-0.188D-03-0.991D-04 0.636D-03 0.500D-02
 Coeff-Com:  0.894D-03-0.170D-01-0.523D-01-0.165D-01 0.267D+00 0.813D+00
 Coeff:     -0.217D-06 0.285D-06 0.131D-06-0.689D-06 0.194D-05 0.109D-04
 Coeff:      0.149D-04-0.100D-04-0.188D-03-0.991D-04 0.636D-03 0.500D-02
 Coeff:      0.894D-03-0.170D-01-0.523D-01-0.165D-01 0.267D+00 0.813D+00
 Gap=     0.299 Goal=   None    Shift=    0.000
 RMSDP=3.31D-08 MaxDP=2.16D-06 DE=-6.88D-10 OVMax= 1.28D-06

 Cycle  19  Pass 1  IDiag  1:
 RMSU=  1.49D-08    CP:  4.61D-01  2.51D-02  7.14D-01  7.29D-01  1.15D+00
                    CP:  9.35D-01  9.45D-01  1.39D+00  1.32D+00  1.27D+00
                    CP:  1.29D+00  1.56D+00  1.49D+00  1.44D+00  1.60D+00
                    CP:  2.02D+00  2.70D+00  2.16D+00
 E= -3907.22023454733     Delta-E=       -0.000000000118 Rises=F Damp=F
 DIIS: error= 3.91D-08 at cycle  19 NSaved=  19.
 NSaved=19 IEnMin=19 EnMin= -3907.22023454733     IErMin=18 ErrMin= 2.44D-08
 ErrMax= 3.91D-08  0.00D+00 EMaxC= 1.00D-01 BMatC= 1.83D-12 BMatP= 4.03D-12
 IDIUse=1 WtCom= 1.00D+00 WtEn= 0.00D+00
 Coeff-Com: -0.945D-07 0.115D-06 0.307D-07-0.594D-06 0.133D-05 0.582D-05
 Coeff-Com:  0.930D-05 0.839D-05-0.923D-04-0.102D-03 0.161D-03 0.249D-02
 Coeff-Com:  0.133D-02-0.586D-02-0.264D-01-0.295D-01 0.895D-01 0.440D+00
 Coeff-Com:  0.528D+00
 Coeff:     -0.945D-07 0.115D-06 0.307D-07-0.594D-06 0.133D-05 0.582D-05
 Coeff:      0.930D-05 0.839D-05-0.923D-04-0.102D-03 0.161D-03 0.249D-02
 Coeff:      0.133D-02-0.586D-02-0.264D-01-0.295D-01 0.895D-01 0.440D+00
 Coeff:      0.528D+00
 Gap=     0.299 Goal=   None    Shift=    0.000
 RMSDP=3.14D-08 MaxDP=2.32D-06 DE=-1.18D-10 OVMax= 2.58D-07

 Cycle  20  Pass 1  IDiag  1:
 RMSU=  1.52D-08    CP:  4.61D-01  2.51D-02  7.14D-01  7.29D-01  1.15D+00
                    CP:  9.35D-01  9.45D-01  1.39D+00  1.32D+00  1.27D+00
                    CP:  1.29D+00  1.56D+00  1.49D+00  1.44D+00  1.65D+00
                    CP:  2.27D+00  3.00D+00  3.00D+00  1.94D+00
 E= -3907.22023454745     Delta-E=       -0.000000000124 Rises=F Damp=F
 DIIS: error= 5.28D-08 at cycle  20 NSaved=  20.
 NSaved=20 IEnMin=20 EnMin= -3907.22023454745     IErMin=18 ErrMin= 2.44D-08
 ErrMax= 5.28D-08  0.00D+00 EMaxC= 1.00D-01 BMatC= 2.55D-12 BMatP= 1.83D-12
 IDIUse=1 WtCom= 1.00D+00 WtEn= 0.00D+00
 Coeff-Com: -0.882D-07 0.951D-07 0.732D-08-0.952D-06 0.190D-05 0.699D-05
 Coeff-Com:  0.119D-04 0.237D-04-0.944D-04-0.185D-03-0.176D-04 0.277D-02
 Coeff-Com:  0.275D-02-0.349D-02-0.316D-01-0.577D-01 0.519D-01 0.549D+00
 Coeff-Com:  0.122D+01-0.734D+00
 Coeff:     -0.882D-07 0.951D-07 0.732D-08-0.952D-06 0.190D-05 0.699D-05
 Coeff:      0.119D-04 0.237D-04-0.944D-04-0.185D-03-0.176D-04 0.277D-02
 Coeff:      0.275D-02-0.349D-02-0.316D-01-0.577D-01 0.519D-01 0.549D+00
 Coeff:      0.122D+01-0.734D+00
 Gap=     0.299 Goal=   None    Shift=    0.000
 RMSDP=3.53D-08 MaxDP=2.53D-06 DE=-1.24D-10 OVMax= 6.29D-08

 Cycle  21  Pass 1  IDiag  1:
 Restarting incremental Fock formation.
 E= -3907.22023455273     Delta-E=       -0.000000005281 Rises=F Damp=F
 DIIS: error= 1.73D-07 at cycle  21 NSaved=  20.
 NSaved=20 IEnMin=20 EnMin= -3907.22023455273     IErMin=17 ErrMin= 2.44D-08
 ErrMax= 1.73D-07  0.00D+00 EMaxC= 1.00D-01 BMatC= 3.90D-11 BMatP= 1.83D-12
 IDIUse=1 WtCom= 1.00D+00 WtEn= 0.00D+00
 Coeff-Com: -0.344D-07 0.420D-08-0.853D-06 0.207D-05 0.635D-05 0.870D-05
 Coeff-Com:  0.175D-04-0.860D-04-0.167D-03-0.418D-04 0.241D-02 0.267D-02
 Coeff-Com: -0.212D-02-0.274D-01-0.563D-01 0.350D-01 0.498D+00 0.117D+01
 Coeff-Com: -0.679D+00 0.518D-01
 Coeff:     -0.344D-07 0.420D-08-0.853D-06 0.207D-05 0.635D-05 0.870D-05
 Coeff:      0.175D-04-0.860D-04-0.167D-03-0.418D-04 0.241D-02 0.267D-02
 Coeff:     -0.212D-02-0.274D-01-0.563D-01 0.350D-01 0.498D+00 0.117D+01
 Coeff:     -0.679D+00 0.518D-01
 Gap=     0.299 Goal=   None    Shift=    0.000
 RMSDP=1.44D-08 MaxDP=1.53D-06 DE=-5.28D-09 OVMax= 3.58D-08

 Cycle  22  Pass 1  IDiag  1:
 RMSU=  1.43D-08    CP:  1.00D+00
 E= -3907.22023455296     Delta-E=       -0.000000000226 Rises=F Damp=F
 DIIS: error= 1.64D-07 at cycle  22 NSaved=  20.
 NSaved=20 IEnMin=20 EnMin= -3907.22023455296     IErMin=16 ErrMin= 2.44D-08
 ErrMax= 1.64D-07  0.00D+00 EMaxC= 1.00D-01 BMatC= 3.56D-11 BMatP= 1.83D-12
 IDIUse=1 WtCom= 1.00D+00 WtEn= 0.00D+00
 Coeff-Com:  0.222D-07-0.824D-06 0.160D-05 0.596D-05 0.962D-05 0.178D-04
 Coeff-Com: -0.832D-04-0.154D-03-0.151D-04 0.229D-02 0.243D-02-0.237D-02
 Coeff-Com: -0.264D-01-0.519D-01 0.365D-01 0.466D+00 0.108D+01-0.592D+00
 Coeff-Com: -0.753D+00 0.841D+00
 Coeff:      0.222D-07-0.824D-06 0.160D-05 0.596D-05 0.962D-05 0.178D-04
 Coeff:     -0.832D-04-0.154D-03-0.151D-04 0.229D-02 0.243D-02-0.237D-02
 Coeff:     -0.264D-01-0.519D-01 0.365D-01 0.466D+00 0.108D+01-0.592D+00
 Coeff:     -0.753D+00 0.841D+00
 Gap=     0.299 Goal=   None    Shift=    0.000
 RMSDP=1.84D-08 MaxDP=1.90D-06 DE=-2.26D-10 OVMax= 3.61D-08

 Cycle  23  Pass 1  IDiag  1:
 RMSU=  1.44D-08    CP:  1.00D+00  1.80D+00
 E= -3907.22023455213     Delta-E=        0.000000000828 Rises=F Damp=F
 DIIS: error= 1.70D-07 at cycle  23 NSaved=  20.
 NSaved=20 IEnMin=19 EnMin= -3907.22023455296     IErMin=15 ErrMin= 2.44D-08
 ErrMax= 1.70D-07  0.00D+00 EMaxC= 1.00D-01 BMatC= 3.45D-11 BMatP= 1.83D-12
 IDIUse=1 WtCom= 1.00D+00 WtEn= 0.00D+00
 Coeff-Com: -0.829D-06 0.160D-05 0.583D-05 0.916D-05 0.174D-04-0.797D-04
 Coeff-Com: -0.149D-03-0.163D-04 0.223D-02 0.237D-02-0.229D-02-0.259D-01
 Coeff-Com: -0.516D-01 0.358D-01 0.464D+00 0.108D+01-0.596D+00-0.745D+00
 Coeff-Com:  0.658D+00 0.178D+00
 Coeff:     -0.829D-06 0.160D-05 0.583D-05 0.916D-05 0.174D-04-0.797D-04
 Coeff:     -0.149D-03-0.163D-04 0.223D-02 0.237D-02-0.229D-02-0.259D-01
 Coeff:     -0.516D-01 0.358D-01 0.464D+00 0.108D+01-0.596D+00-0.745D+00
 Coeff:      0.658D+00 0.178D+00
 Gap=     0.299 Goal=   None    Shift=    0.000
 RMSDP=5.74D-09 MaxDP=6.41D-07 DE= 8.28D-10 OVMax= 6.29D-09

 Error on total polarization charges =  0.06753
 SCF Done:  E(RwB97XD) =  -3907.22023455     A.U. after   23 cycles
            NFock= 23  Conv=0.57D-08     -V/T= 2.0247
 KE= 3.812966314066D+03 PE=-3.040239787130D+04 EE= 1.206283680543D+04
 SMD-CDS (non-electrostatic) energy       (kcal/mol) =     -11.20
 (included in total energy above)
 Leave Link  502 at Tue Nov 28 01:35:06 2023, MaxMem=  2147483648 cpu:    173763.2
 (Enter /cluster/apps/gaussian/g09/l601.exe)
 Copying SCF densities to generalized density rwf, IOpCl= 0 IROHF=0.

 **********************************************************************

            Population analysis using the SCF density.

 **********************************************************************

 Orbital symmetries:
       Occupied  (A) (A) (A) (A) (A) (A) (A) (A) (A) (A) (A) (A)
                 (A) (A) (A) (A) (A) (A) (A) (A) (A) (A) (A) (A)
                 (A) (A) (A) (A) (A) (A) (A) (A) (A) (A) (A) (A)
                 (A) (A) (A) (A) (A) (A) (A) (A) (A) (A) (A) (A)
                 (A) (A) (A) (A) (A) (A) (A) (A) (A) (A) (A) (A)
                 (A) (A) (A) (A) (A) (A) (A) (A) (A) (A) (A) (A)
                 (A) (A) (A) (A) (A) (A) (A) (A) (A) (A) (A) (A)
                 (A) (A) (A) (A) (A) (A) (A) (A) (A) (A) (A) (A)
                 (A) (A) (A) (A) (A) (A) (A) (A) (A) (A) (A) (A)
                 (A) (A) (A) (A) (A) (A) (A) (A) (A) (A) (A) (A)
                 (A) (A) (A) (A) (A) (A) (A) (A) (A) (A) (A) (A)
                 (A) (A) (A) (A) (A) (A) (A) (A) (A) (A) (A) (A)
                 (A) (A) (A) (A) (A) (A) (A) (A) (A) (A) (A) (A)
                 (A) (A) (A) (A) (A) (A) (A) (A) (A) (A) (A) (A)
                 (A) (A) (A) (A) (A) (A) (A) (A) (A) (A) (A) (A)
                 (A) (A) (A) (A) (A) (A) (A) (A) (A) (A) (A) (A)
                 (A) (A) (A) (A) (A) (A) (A) (A) (A) (A) (A) (A)
                 (A) (A) (A) (A) (A) (A) (A) (A) (A) (A) (A) (A)
                 (A) (A) (A) (A) (A) (A)
       Virtual   (A) (A) (A) (A) (A) (A) (A) (A) (A) (A) (A) (A)
                 (A) (A) (A) (A) (A) (A) (A) (A) (A) (A) (A) (A)
                 (A) (A) (A) (A) (A) (A) (A) (A) (A) (A) (A) (A)
                 (A) (A) (A) (A) (A) (A) (A) (A) (A) (A) (A) (A)
                 (A) (A) (A) (A) (A) (A) (A) (A) (A) (A) (A) (A)
                 (A) (A) (A) (A) (A) (A) (A) (A) (A) (A) (A) (A)
                 (A) (A) (A) (A) (A) (A) (A) (A) (A) (A) (A) (A)
                 (A) (A) (A) (A) (A) (A) (A) (A) (A) (A) (A) (A)
                 (A) (A) (A) (A) (A) (A) (A) (A) (A) (A) (A) (A)
                 (A) (A) (A) (A) (A) (A) (A) (A) (A) (A) (A) (A)
                 (A) (A) (A) (A) (A) (A) (A) (A) (A) (A) (A) (A)
                 (A) (A) (A) (A) (A) (A) (A) (A) (A) (A) (A) (A)
                 (A) (A) (A) (A) (A) (A) (A) (A) (A) (A) (A) (A)
                 (A) (A) (A) (A) (A) (A) (A) (A) (A) (A) (A) (A)
                 (A) (A) (A) (A) (A) (A) (A) (A) (A) (A) (A) (A)
                 (A) (A) (A) (A) (A) (A) (A) (A) (A) (A) (A) (A)
                 (A) (A) (A) (A) (A) (A) (A) (A) (A) (A) (A) (A)
                 (A) (A) (A) (A) (A) (A) (A) (A) (A) (A) (A) (A)
                 (A) (A) (A) (A) (A) (A) (A) (A) (A) (A) (A) (A)
                 (A) (A) (A) (A) (A) (A) (A) (A) (A) (A) (A) (A)
                 (A) (A) (A) (A) (A) (A) (A) (A) (A) (A) (A) (A)
                 (A) (A) (A) (A) (A) (A) (A) (A) (A) (A) (A) (A)
                 (A) (A) (A) (A) (A) (A) (A) (A) (A) (A) (A) (A)
                 (A) (A) (A) (A) (A) (A) (A) (A) (A) (A) (A) (A)
                 (A) (A) (A) (A) (A) (A) (A) (A) (A) (A) (A) (A)
                 (A) (A) (A) (A) (A) (A) (A) (A) (A) (A) (A) (A)
                 (A) (A) (A) (A) (A) (A) (A) (A) (A) (A) (A) (A)
                 (A) (A) (A) (A) (A) (A) (A) (A) (A) (A) (A) (A)
                 (A) (A) (A) (A) (A) (A) (A) (A) (A) (A) (A) (A)
                 (A) (A) (A) (A) (A) (A) (A) (A) (A) (A) (A) (A)
                 (A) (A) (A) (A) (A) (A) (A) (A) (A) (A) (A) (A)
                 (A) (A) (A) (A) (A) (A) (A) (A) (A) (A) (A) (A)
                 (A) (A) (A) (A) (A) (A) (A) (A) (A) (A) (A) (A)
                 (A) (A) (A) (A) (A) (A) (A) (A) (A) (A) (A) (A)
                 (A) (A) (A) (A) (A) (A) (A) (A) (A) (A) (A) (A)
                 (A) (A) (A) (A) (A) (A) (A) (A) (A) (A) (A) (A)
                 (A) (A) (A) (A) (A) (A) (A) (A) (A) (A) (A) (A)
                 (A) (A) (A) (A) (A) (A) (A) (A) (A) (A) (A) (A)
                 (A) (A) (A) (A) (A) (A) (A) (A) (A) (A) (A) (A)
                 (A) (A) (A) (A) (A) (A) (A) (A) (A) (A) (A) (A)
                 (A) (A) (A) (A) (A) (A) (A) (A) (A) (A) (A) (A)
                 (A) (A) (A) (A) (A) (A) (A) (A) (A) (A) (A) (A)
                 (A) (A) (A) (A) (A) (A) (A) (A) (A) (A) (A) (A)
                 (A) (A) (A) (A) (A) (A) (A) (A) (A) (A) (A) (A)
                 (A) (A) (A) (A) (A) (A) (A) (A) (A) (A) (A) (A)
                 (A) (A) (A) (A) (A) (A) (A) (A) (A) (A) (A) (A)
                 (A) (A) (A) (A) (A) (A) (A) (A) (A) (A) (A) (A)
                 (A) (A) (A) (A) (A) (A) (A) (A) (A) (A) (A) (A)
                 (A) (A) (A) (A) (A) (A) (A) (A) (A) (A) (A) (A)
                 (A) (A) (A) (A) (A) (A) (A) (A) (A) (A) (A) (A)
                 (A) (A) (A) (A) (A) (A) (A) (A) (A) (A) (A) (A)
                 (A) (A) (A) (A) (A) (A) (A) (A) (A) (A) (A) (A)
                 (A) (A) (A) (A) (A) (A) (A) (A) (A) (A) (A) (A)
                 (A) (A) (A) (A) (A) (A) (A) (A) (A) (A) (A) (A)
                 (A) (A) (A) (A) (A) (A) (A) (A) (A) (A) (A) (A)
                 (A) (A) (A) (A) (A) (A) (A) (A) (A) (A) (A) (A)
                 (A) (A) (A) (A) (A) (A) (A) (A) (A) (A) (A) (A)
                 (A) (A) (A) (A) (A) (A) (A) (A) (A) (A) (A) (A)
                 (A) (A) (A) (A) (A) (A) (A) (A) (A) (A) (A) (A)
                 (A) (A) (A) (A) (A) (A) (A) (A) (A) (A) (A) (A)
                 (A) (A) (A) (A) (A) (A) (A) (A) (A) (A) (A) (A)
                 (A) (A) (A) (A) (A) (A) (A) (A) (A) (A) (A) (A)
                 (A) (A) (A) (A) (A) (A) (A) (A) (A) (A) (A) (A)
                 (A) (A) (A) (A) (A) (A) (A) (A) (A) (A) (A) (A)
                 (A) (A) (A) (A) (A) (A) (A) (A) (A) (A) (A) (A)
                 (A) (A) (A) (A) (A) (A) (A) (A) (A) (A) (A) (A)
                 (A) (A) (A) (A) (A) (A) (A) (A) (A) (A) (A) (A)
                 (A) (A) (A) (A) (A) (A) (A) (A) (A) (A) (A) (A)
                 (A) (A) (A) (A) (A) (A) (A) (A) (A) (A) (A) (A)
                 (A) (A) (A) (A) (A) (A) (A) (A) (A) (A) (A) (A)
                 (A) (A) (A) (A) (A) (A) (A) (A) (A) (A) (A) (A)
                 (A) (A) (A) (A) (A) (A) (A) (A) (A) (A) (A) (A)
                 (A) (A) (A) (A) (A) (A) (A) (A) (A) (A) (A) (A)
                 (A) (A) (A) (A) (A) (A) (A) (A) (A) (A) (A) (A)
                 (A) (A) (A) (A) (A) (A) (A) (A) (A) (A) (A) (A)
                 (A) (A) (A) (A) (A) (A) (A) (A) (A) (A) (A) (A)
                 (A) (A) (A) (A) (A) (A) (A) (A) (A) (A) (A) (A)
                 (A) (A) (A) (A) (A) (A) (A) (A) (A) (A) (A) (A)
                 (A) (A) (A) (A) (A) (A) (A) (A) (A) (A) (A) (A)
                 (A) (A) (A) (A) (A) (A) (A) (A) (A) (A) (A) (A)
                 (A) (A) (A) (A) (A) (A) (A) (A) (A) (A) (A) (A)
                 (A) (A) (A) (A) (A) (A) (A) (A) (A) (A) (A) (A)
                 (A) (A) (A) (A) (A) (A) (A) (A) (A) (A) (A) (A)
                 (A) (A) (A) (A) (A) (A) (A) (A) (A) (A) (A) (A)
                 (A) (A) (A) (A) (A) (A) (A) (A) (A) (A) (A) (A)
                 (A) (A) (A) (A) (A) (A) (A) (A) (A) (A) (A) (A)
                 (A) (A) (A) (A) (A) (A) (A) (A) (A) (A) (A) (A)
                 (A) (A) (A) (A) (A) (A) (A) (A) (A) (A) (A) (A)
                 (A) (A) (A) (A) (A) (A) (A) (A) (A) (A) (A) (A)
                 (A) (A) (A) (A) (A) (A) (A) (A) (A) (A) (A) (A)
                 (A) (A) (A) (A) (A) (A) (A) (A) (A) (A) (A) (A)
                 (A) (A) (A) (A) (A) (A) (A) (A) (A) (A) (A) (A)
                 (A) (A) (A) (A) (A) (A) (A) (A) (A) (A) (A) (A)
                 (A) (A) (A) (A) (A) (A) (A) (A) (A) (A) (A) (A)
                 (A) (A) (A) (A) (A) (A) (A) (A) (A) (A) (A) (A)
                 (A) (A) (A) (A) (A) (A) (A) (A) (A) (A) (A) (A)
                 (A) (A) (A) (A) (A) (A) (A) (A) (A) (A) (A) (A)
                 (A) (A) (A) (A) (A) (A) (A) (A) (A) (A) (A) (A)
                 (A) (A) (A) (A) (A) (A) (A) (A) (A) (A) (A) (A)
                 (A) (A) (A) (A) (A) (A) (A) (A) (A) (A) (A) (A)
                 (A) (A) (A) (A) (A) (A) (A) (A) (A) (A) (A) (A)
                 (A) (A) (A) (A) (A) (A) (A) (A) (A) (A) (A) (A)
                 (A) (A) (A) (A) (A) (A) (A) (A) (A) (A) (A) (A)
                 (A) (A) (A) (A) (A) (A) (A) (A) (A) (A) (A) (A)
                 (A) (A) (A) (A) (A) (A) (A) (A) (A) (A) (A) (A)
                 (A) (A) (A) (A) (A) (A) (A) (A) (A) (A) (A) (A)
[...]
 Alpha virt. eigenvalues --    3.46604   3.46869   3.47143   3.47273   3.47418
 Alpha virt. eigenvalues --    3.47708   3.48339   3.48563   3.48584   3.49092
 Alpha virt. eigenvalues --    3.49204   3.49453   3.49859   3.50047   3.50188
 Alpha virt. eigenvalues --    3.50301   3.51049   3.51093   3.51407   3.51522
 Alpha virt. eigenvalues --    3.51791   3.52084   3.52261   3.52482   3.52839
 Alpha virt. eigenvalues --    3.53147   3.53346   3.53783   3.53811   3.53936
 Alpha virt. eigenvalues --    3.54541   3.54646   3.55135   3.55411   3.55673
 Alpha virt. eigenvalues --    3.56077   3.56381   3.56468   3.56535   3.56740
 Alpha virt. eigenvalues --    3.57039   3.57462   3.57652   3.57841   3.58133
 Alpha virt. eigenvalues --    3.58403   3.58501   3.58655   3.58889   3.59412
 Alpha virt. eigenvalues --    3.59570   3.59830   3.60007   3.60239   3.60443
 Alpha virt. eigenvalues --    3.60711   3.60956   3.61099   3.61572   3.61625
 Alpha virt. eigenvalues --    3.61842   3.62285   3.62731   3.62905   3.63088
 Alpha virt. eigenvalues --    3.63522   3.63544   3.63637   3.64193   3.64433
 Alpha virt. eigenvalues --    3.64609   3.65087   3.65234   3.65576   3.65808
 Alpha virt. eigenvalues --    3.66082   3.66182   3.66582   3.66928   3.67164
 Alpha virt. eigenvalues --    3.67587   3.68193   3.68238   3.68477   3.68715
 Alpha virt. eigenvalues --    3.68857   3.68969   3.69391   3.69665   3.70135
 Alpha virt. eigenvalues --    3.70331   3.70564   3.70940   3.71146   3.71528
 Alpha virt. eigenvalues --    3.71598   3.71766   3.72292   3.72693   3.72891
 Alpha virt. eigenvalues --    3.73118   3.73394   3.73691   3.73925   3.74388
 Alpha virt. eigenvalues --    3.74769   3.74981   3.75408   3.75521   3.75847
 Alpha virt. eigenvalues --    3.76235   3.76638   3.76963   3.77095   3.77543
 Alpha virt. eigenvalues --    3.77714   3.77850   3.78380   3.79165   3.79561
 Alpha virt. eigenvalues --    3.79704   3.79818   3.79964   3.80204   3.80547
 Alpha virt. eigenvalues --    3.80726   3.81068   3.81605   3.81890   3.82232
 Alpha virt. eigenvalues --    3.82417   3.82741   3.83150   3.83517   3.83541
 Alpha virt. eigenvalues --    3.84181   3.84271   3.84865   3.85440   3.85848
 Alpha virt. eigenvalues --    3.86389   3.86834   3.87393   3.87788   3.88226
 Alpha virt. eigenvalues --    3.88879   3.89221   3.89490   3.89822   3.90387
 Alpha virt. eigenvalues --    3.90685   3.91501   3.91870   3.92400   3.92620
 Alpha virt. eigenvalues --    3.93365   3.94131   3.94353   3.94688   3.95393
 Alpha virt. eigenvalues --    3.96391   3.97247   3.98239   3.98974   3.99110
 Alpha virt. eigenvalues --    3.99536   4.00091   4.00906   4.01486   4.02551
 Alpha virt. eigenvalues --    4.03057   4.03972   4.04915   4.05088   4.05989
 Alpha virt. eigenvalues --    4.06864   4.07602   4.08631   4.08797   4.09106
 Alpha virt. eigenvalues --    4.09484   4.09868   4.10296   4.10357   4.10976
 Alpha virt. eigenvalues --    4.11579   4.11740   4.12269   4.12553   4.12833
 Alpha virt. eigenvalues --    4.13077   4.13650   4.13803   4.13880   4.14280
 Alpha virt. eigenvalues --    4.14498   4.14811   4.15315   4.15771   4.16268
 Alpha virt. eigenvalues --    4.16526   4.17148   4.17293   4.17341   4.18050
 Alpha virt. eigenvalues --    4.18539   4.19237   4.19462   4.20099   4.20318
 Alpha virt. eigenvalues --    4.20563   4.20821   4.21037   4.21307   4.21462
 Alpha virt. eigenvalues --    4.21817   4.22509   4.22891   4.23188   4.23368
 Alpha virt. eigenvalues --    4.23956   4.23999   4.24316   4.24709   4.24843
 Alpha virt. eigenvalues --    4.25349   4.25830   4.26331   4.26706   4.27144
 Alpha virt. eigenvalues --    4.27488   4.27911   4.29207   4.29684   4.29837
 Alpha virt. eigenvalues --    4.30521   4.30923   4.31134   4.31706   4.31807
 Alpha virt. eigenvalues --    4.32435   4.32913   4.33551   4.34001   4.35002
 Alpha virt. eigenvalues --    4.35376   4.35659   4.36237   4.36514   4.36597
 Alpha virt. eigenvalues --    4.36926   4.37441   4.37941   4.38056   4.38667
 Alpha virt. eigenvalues --    4.38743   4.39154   4.39944   4.40401   4.41050
 Alpha virt. eigenvalues --    4.41265   4.41526   4.42387   4.42425   4.42745
 Alpha virt. eigenvalues --    4.42944   4.43085   4.43837   4.44163   4.44595
 Alpha virt. eigenvalues --    4.44916   4.45205   4.45525   4.45956   4.46071
 Alpha virt. eigenvalues --    4.46417   4.47051   4.47170   4.47725   4.48070
 Alpha virt. eigenvalues --    4.48291   4.48617   4.48847   4.49108   4.49489
 Alpha virt. eigenvalues --    4.50223   4.50588   4.51920   4.53036   4.53682
 Alpha virt. eigenvalues --    4.54165   4.54466   4.55015   4.55728   4.56574
 Alpha virt. eigenvalues --    4.58757   4.59621   4.61073   4.62263   4.62644
 Alpha virt. eigenvalues --    4.63549   4.64180   4.64385   4.64928   4.65654
 Alpha virt. eigenvalues --    4.66511   4.67565   4.67806   4.68143   4.68393
 Alpha virt. eigenvalues --    4.68858   4.69479   4.70862   4.71049   4.71374
 Alpha virt. eigenvalues --    4.72690   4.73140   4.74108   4.74431   4.75110
 Alpha virt. eigenvalues --    4.75495   4.76064   4.77742   4.78411   4.79181
 Alpha virt. eigenvalues --    4.79660   4.80463   4.81193   4.81961   4.82255
 Alpha virt. eigenvalues --    4.82984   4.83620   4.83987   4.84987   4.85814
 Alpha virt. eigenvalues --    4.87472   4.88242   4.89163   4.89817   4.91423
 Alpha virt. eigenvalues --    4.92319   4.92811   4.93037   4.93755   4.94369
 Alpha virt. eigenvalues --    4.94916   4.95142   4.95910   4.96177   4.97012
 Alpha virt. eigenvalues --    4.97456   4.97839   4.98096   4.98671   4.99568
 Alpha virt. eigenvalues --    5.00877   5.02235   5.04698   5.07592   5.10430
 Alpha virt. eigenvalues --    5.11534   5.11867   5.12934   5.13959   5.14122
 Alpha virt. eigenvalues --    5.14944   5.15227   5.15694   5.16121   5.16452
 Alpha virt. eigenvalues --    5.17057   5.17368   5.19841   5.20801   5.20818
 Alpha virt. eigenvalues --    5.22036   5.23510   5.24616   5.25571   5.26058
 Alpha virt. eigenvalues --    5.26405   5.27105   5.27807   5.28292   5.29304
 Alpha virt. eigenvalues --    5.29697   5.30584   5.31070   5.32670   5.33195
 Alpha virt. eigenvalues --    5.35428   5.37267   5.39278   5.42245   5.43792
 Alpha virt. eigenvalues --    5.45499   5.46138   5.48425   5.53120   5.53754
 Alpha virt. eigenvalues --    5.57681   5.58795   5.62976   5.63270   5.65130
 Alpha virt. eigenvalues --    5.67935   5.68365   5.70133   5.72289   5.74216
 Alpha virt. eigenvalues --    5.76373   5.79054   5.87883   5.90616   5.95401
 Alpha virt. eigenvalues --    6.02353   6.05149   6.10830   6.15280   6.47870
 Alpha virt. eigenvalues --    6.48474   6.51641   6.53839   6.59703   6.64913
 Alpha virt. eigenvalues --    6.74910   6.83402   6.89469   6.90183   6.93138
 Alpha virt. eigenvalues --    6.93403   6.94122   6.94794   6.95053   6.95135
 Alpha virt. eigenvalues --    6.95920   6.96217   6.96942   6.97231   6.97713
 Alpha virt. eigenvalues --    7.00542   7.02268   7.04456   7.05958   7.08556
 Alpha virt. eigenvalues --    7.13873   7.14366   7.15389   7.18690   7.24439
 Alpha virt. eigenvalues --    7.28155   7.28596   7.29916   7.36447   7.38529
 Alpha virt. eigenvalues --    7.41648   7.48773   7.49212   7.52914   7.56565
 Alpha virt. eigenvalues --    7.61895   7.74590   7.75715   8.00100   8.03112
 Alpha virt. eigenvalues --    8.06439   8.07584   8.09367   8.12055   8.15883
 Alpha virt. eigenvalues --    8.40423   8.43917   8.46523   8.50091   8.55682
 Alpha virt. eigenvalues --    8.65471   8.65682   8.78998   8.80134   8.84631
 Alpha virt. eigenvalues --    8.89224   8.91449   8.95258   9.01228   9.03340
 Alpha virt. eigenvalues --    9.11752   9.13343   9.18452   9.20053   9.42187
 Alpha virt. eigenvalues --    9.54151   9.65727   9.86292  10.97060  11.03962
 Alpha virt. eigenvalues --   11.40031  15.85040  15.87322  22.20024  22.50537
 Alpha virt. eigenvalues --   22.54048  22.55098  22.57219  22.58226  22.58605
 Alpha virt. eigenvalues --   22.59429  22.60881  22.61582  22.62047  22.63271
 Alpha virt. eigenvalues --   22.63564  22.65124  22.66489  22.67275  22.68123
 Alpha virt. eigenvalues --   22.69792  22.70230  22.71156  22.73018  22.74888
 Alpha virt. eigenvalues --   22.76632  22.78720  22.80449  22.81746  22.84692
 Alpha virt. eigenvalues --   22.86802  22.87188  22.90663  22.92223  22.95638
 Alpha virt. eigenvalues --   22.97612  23.02927  23.08745  23.09202  23.19850
 Alpha virt. eigenvalues --   23.20208  23.26193  23.48850  23.80772  25.75908
 Alpha virt. eigenvalues --   32.87260  33.03937  43.89938  44.12360  44.36430
 Alpha virt. eigenvalues --   57.34960  57.55322  57.66555  57.77699 107.18830
          Condensed to atoms (all electrons):
 Mulliken charges:
               1
     1  Pd  -0.328952
     2  Cl  -0.107323
     3  S    0.827709
     4  P    0.381236
     5  P    0.438202
     6  F   -0.219959
     7  F   -0.203468
     8  F   -0.202508
     9  F   -0.210253
    10  O   -0.530805
    11  O   -0.528398
    12  O   -0.304986
    13  N   -0.384246
    14  C   -0.107357
    15  C   -0.232989
    16  H    0.196085
    17  C   -0.284769
    18  H    0.131262
    19  C    0.410624
    20  C   -0.225718
    21  H    0.136121
    22  H    0.156158
    23  H    0.135865
    24  C   -0.526570
    25  H    0.171061
    26  C    0.112496
    27  C    0.210911
    28  C    0.264746
    29  C    0.183038
    30  C    0.194937
    31  C    0.117097
    32  C   -0.020073
    33  C   -0.151646
    34  H    0.204267
    35  H    0.186638
    36  C   -0.374142
    37  H    0.170275
    38  H    0.179285
    39  C   -0.386044
    40  H    0.176669
    41  H    0.180089
    42  C   -0.088892
    43  C   -0.317096
    44  C   -0.249726
    45  H    0.123136
    46  C   -0.185904
    47  H    0.143403
    48  H    0.121238
    49  C   -0.197678
    50  H    0.098749
    51  H    0.119814
    52  C   -0.181857
    53  H    0.113448
    54  H    0.090427
    55  H    0.112915
    56  H    0.094430
    57  H    0.108185
    58  H    0.101827
    59  C   -0.087682
    60  C   -0.294661
    61  C   -0.290853
    62  H    0.138430
    63  C   -0.185648
    64  H    0.111848
    65  H    0.138923
    66  C   -0.216729
    67  H    0.111350
    68  H    0.152518
    69  C   -0.181857
    70  H    0.117333
    71  H    0.104115
    72  H    0.114719
    73  H    0.110169
    74  H    0.117500
    75  H    0.094305
    76  C   -0.057089
    77  C   -0.290152
    78  C   -0.180602
    79  H    0.130337
    80  C   -0.174091
    81  H    0.115486
    82  H    0.131904
    83  C   -0.190801
    84  H    0.032262
    85  H    0.119509
    86  C   -0.218322
    87  H    0.116825
    88  H    0.096096
    89  H    0.115824
    90  H    0.102227
    91  H    0.114274
    92  H    0.108216
    93  C   -0.091949
    94  C   -0.295045
    95  C   -0.311368
    96  H    0.120430
    97  C   -0.195952
    98  H    0.114248
    99  H    0.140487
   100  C   -0.197612
   101  H    0.114179
   102  H    0.159422
   103  C   -0.192344
   104  H    0.119299
   105  H    0.104045
   106  H    0.120445
   107  H    0.110607
   108  H    0.119035
   109  H    0.095404
 Sum of Mulliken charges =   0.00000
 Mulliken charges with hydrogens summed into heavy atoms:
               1
     1  Pd  -0.328952
     2  Cl  -0.107323
     3  S    0.827709
     4  P    0.381236
     5  P    0.438202
     6  F   -0.219959
     7  F   -0.203468
     8  F   -0.202508
     9  F   -0.210253
    10  O   -0.530805
    11  O   -0.528398
    12  O   -0.304986
    13  N   -0.384246
    14  C   -0.107357
    15  C   -0.036904
    17  C   -0.153507
    19  C    0.410624
    20  C    0.202426
    24  C   -0.355509
    26  C    0.112496
    27  C    0.210911
    28  C    0.264746
    29  C    0.183038
    30  C    0.194937
    31  C    0.117097
    32  C   -0.020073
    33  C    0.239259
    36  C   -0.024582
    39  C   -0.029286
    42  C    0.034245
    43  C   -0.052454
    44  C   -0.031163
    46  C    0.017971
    49  C    0.009666
    52  C    0.028155
    59  C    0.050748
    60  C   -0.043890
    61  C   -0.026984
    63  C    0.035800
    66  C    0.008159
    69  C    0.029949
    76  C    0.073248
    77  C   -0.042762
    78  C   -0.028832
    80  C    0.038831
    83  C    0.027250
    86  C    0.004168
    93  C    0.028481
    94  C   -0.040309
    95  C   -0.037767
    97  C    0.027392
   100  C    0.033440
   103  C    0.022095
 Electronic spatial extent (au):  <R**2>=          31745.4545
 Charge=              0.0000 electrons
 Dipole moment (field-independent basis, Debye):
    X=             -1.0433    Y=              9.4845    Z=             11.3401  Tot=             14.8203
 Quadrupole moment (field-independent basis, Debye-Ang):
   XX=           -351.6220   YY=           -365.8336   ZZ=           -358.6506
   XY=              7.1064   XZ=             23.5862   YZ=              4.1942
 Traceless Quadrupole moment (field-independent basis, Debye-Ang):
   XX=              7.0801   YY=             -7.1316   ZZ=              0.0515
   XY=              7.1064   XZ=             23.5862   YZ=              4.1942
 Octapole moment (field-independent basis, Debye-Ang**2):
  XXX=            -44.7664  YYY=            126.8968  ZZZ=             52.1096  XYY=             -9.7039
  XXY=            -38.6948  XXZ=              9.7240  XZZ=            -48.4962  YZZ=             19.5684
  YYZ=             35.7956  XYZ=            -51.1958
 Hexadecapole moment (field-independent basis, Debye-Ang**3):
 XXXX=         -16500.1508 YYYY=         -15303.2997 ZZZZ=          -9917.8804 XXXY=            346.5959
 XXXZ=            409.9512 YYYX=            -40.3747 YYYZ=             69.6668 ZZZX=            170.5589
 ZZZY=            -44.4399 XXYY=          -5340.6988 XXZZ=          -4434.8746 YYZZ=          -4242.6678
 XXYZ=            162.7955 YYXZ=            119.2484 ZZXY=            128.7188
 N-N= 1.061937451725D+04 E-N=-3.040239787109D+04  KE= 3.812966314066D+03
 Leave Link  601 at Tue Nov 28 01:35:08 2023, MaxMem=  2147483648 cpu:        11.1
 (Enter /cluster/apps/gaussian/g09/l9999.exe)
 1\1\GINC-EU-G1-004-1\SP\RwB97XD\GenECP\C40H56Cl1F4N1O3P2Pd1S1\SROEDIGE
 R\28-Nov-2023\0\\#p sp geom=allcheck scrf(solvent=dichloromethane,smd)
  wb97xd genecp temperature=313 integral(grid=ultrafine)\\title\\0,1\Pd
 ,0,-0.4820335444,-0.4863447917,-0.0817990515\Cl,0,-1.2857849536,-1.591
 1412932,-3.3379998997\S,0,-0.9097173331,1.3370176086,-2.8259780371\P,0
 ,-0.17694187,-2.018357472,1.5375201955\P,0,-2.3925871351,0.2198687693,
 1.0871560112\F,0,4.1945020792,1.5820877594,0.2017685254\F,0,3.74555275
 51,4.1215302137,0.8997830501\F,0,1.3264082491,5.2705736507,0.427813932
 4\F,0,-0.65209474,3.8364147594,-0.684898869\O,0,-2.3698947989,1.271065
 4463,-2.8468849304\O,0,-0.2183157116,2.4362180268,-3.4984261543\O,0,4.
 7914515423,-1.9646825003,-3.0184453272\N,0,-0.3668476944,1.1830794686,
 -1.3130088239\C,0,1.2500275014,-1.0270659816,-0.9976742123\C,0,1.48211
 39719,-2.2769867188,-1.5882223602\H,0,0.7139159329,-3.0519525994,-1.53
 559429\C,0,2.6605995655,-2.5721015282,-2.2632659056\H,0,2.8312392439,-
 3.5503814748,-2.7174771019\C,0,3.6647340062,-1.6019520146,-2.367266492
 5\C,0,5.82004313,-1.0252658505,-3.1497771922\H,0,5.5004003265,-0.14128
 21991,-3.7299790201\H,0,6.6365716252,-1.5241815254,-3.6873041434\H,0,6
 .1941693417,-0.6841227486,-2.1678617044\C,0,3.4471036087,-0.336150871,
 -1.8221396319\H,0,4.1961319769,0.4467910688,-1.9285703865\C,0,2.244127
 9972,-0.0442899467,-1.1525760597\C,0,2.0058303303,1.3431577721,-0.6895
 931269\C,0,2.9987237782,2.1071379545,-0.0767213198\C,0,2.7871074653,3.
 4321330752,0.2983196601\C,0,1.552876548,4.0220369892,0.0483794687\C,0,
 0.5395654771,3.2724909827,-0.5407473557\C,0,0.7338986719,1.9348113784,
 -0.8942999538\C,0,-0.3705497082,-0.1350349064,-3.7449105653\H,0,-0.546
 5533366,0.1117570932,-4.7998621173\H,0,0.6956851763,-0.3028744363,-3.5
 448674674\C,0,-2.655394022,-1.0204403983,2.4415785692\H,0,-3.227186194
 ,-0.5779640398,3.2725426349\H,0,-3.2951872752,-1.8008002658,1.99958415
 01\C,0,-1.341955081,-1.619354406,2.9276604264\H,0,-1.5038515748,-2.512
 0411713,3.5521484244\H,0,-0.8013525494,-0.8933434357,3.5548150882\C,0,
 -4.0488293885,0.2923004146,0.2647566321\C,0,-4.3154482043,1.6371702708
 ,-0.417606365\C,0,-4.1328370322,-0.8646404138,-0.7387940562\H,0,-4.803
 3527689,0.1375077798,1.060802852\C,0,-5.6333773039,1.6149739696,-1.187
 1216083\H,0,-3.4954791961,1.8500303214,-1.1206698584\H,0,-4.3396800186
 ,2.4487643024,0.3250892194\C,0,-5.4528460795,-0.8651405202,-1.50013015
 1\H,0,-3.3037238993,-0.756265412,-1.4568354529\H,0,-3.9875715503,-1.83
 04607179,-0.2269126827\C,0,-5.6793610061,0.4721483765,-2.1936859174\H,
 0,-5.7706152845,2.5817716388,-1.6970589485\H,0,-6.4755328117,1.5128514
 919,-0.4766964067\H,0,-5.4514354318,-1.6875843713,-2.233744086\H,0,-6.
 2861774171,-1.0679448488,-0.8016506173\H,0,-6.6426027816,0.4700590557,
 -2.7292350888\H,0,-4.8865654006,0.6264967147,-2.9443824686\C,0,-2.1413
 779389,1.8670097806,1.8797810733\C,0,-3.2176143349,2.2877246312,2.8798
 457776\C,0,-0.7495388208,2.0142990565,2.497805908\H,0,-2.178509894,2.5
 431289134,1.005910075\C,0,-2.9862032873,3.7233798702,3.3466082051\H,0,
 -3.183853032,1.6140102619,3.7553276324\H,0,-4.2246111537,2.1865591205,
 2.4459308785\C,0,-0.5102234479,3.4476213935,2.9599456073\H,0,-0.662813
 5708,1.3381644771,3.3678014425\H,0,0.0224397314,1.7033495602,1.7775726
 308\C,0,-1.5903998257,3.9069409912,3.9329239846\H,0,-3.7546247925,4.00
 90030978,4.0830518581\H,0,-3.1121894156,4.4018302854,2.4842886175\H,0,
 0.4874163212,3.5324151549,3.4202192341\H,0,-0.4994679267,4.1107941203,
 2.0783349616\H,0,-1.4299738953,4.9595735263,4.2154791962\H,0,-1.510686
 1359,3.3195365429,4.8661385655\C,0,1.4695509364,-2.0122993174,2.393898
 0963\C,0,2.5429545781,-2.8321022544,1.6731906301\C,0,1.9278243271,-0.5
 625976442,2.590929059\H,0,1.2879714987,-2.4666896333,3.3874606355\C,0,
 3.8911824601,-2.7320005832,2.3798808612\H,0,2.6488565917,-2.460704318,
 0.6426585301\H,0,2.2395724318,-3.888163609,1.5988275359\C,0,3.28894909
 24,-0.4693970887,3.2706976619\H,0,1.9805938788,-0.0820329338,1.6001514
 578\H,0,1.1820753563,0.0043123696,3.1683662524\C,0,4.3377508756,-1.283
 2536013,2.5251115029\H,0,4.6394891319,-3.3140500955,1.818720507\H,0,3.
 8206673679,-3.1958204183,3.381145649\H,0,3.5921990482,0.5880482751,3.3
 318703856\H,0,3.2095385838,-0.8350465814,4.3108935971\H,0,5.3081360237
 ,-1.2281936592,3.0439161967\H,0,4.4880362568,-0.8428773017,1.523969047
 9\C,0,-0.5009439732,-3.759132171,1.0291885308\C,0,-0.5269399642,-4.782
 9089061,2.1628440529\C,0,-1.7572154851,-3.8566666326,0.1602604085\H,0,
 0.3654366263,-3.9851671693,0.3818406532\C,0,-0.7014206494,-6.195526343
 7,1.609028452\H,0,-1.3685482017,-4.5579191,2.8418241491\H,0,0.39127874
 4,-4.7216908368,2.7690231432\C,0,-1.928533439,-5.2680836343,-0.3893787
 369\H,0,-2.6423981306,-3.5963097614,0.7678244244\H,0,-1.7115483339,-3.
 115628114,-0.6543557897\C,0,-1.9417554989,-6.3051507526,0.7284116941\H
 ,0,-0.7505811606,-6.9202235229,2.4375382695\H,0,0.19259927,-6.46082838
 63,1.016708623\H,0,-2.8523945652,-5.3291914232,-0.9861704726\H,0,-1.09
 65482182,-5.4850778321,-1.0833088032\H,0,-2.0243438784,-7.3209680683,0
 .3101933185\H,0,-2.8418441045,-6.1530399809,1.3516554213\\Version=ES64
 L-G09RevD.01\State=1-A\HF=-3907.2202346\RMSD=5.743e-09\Dipole=-0.65508
 62,-3.7952836,4.3777365\Quadrupole=6.0996562,-7.5822153,1.4825591,1.57
 1938,-17.7843393,2.419317\PG=C01 [X(C40H56Cl1F4N1O3P2Pd1S1)]\\@


 GARLIC THEN HAVE POWER TO SAVE FROM DEATH
 BEAR WITH IT THOUGH IT MAKETH UNSAVORY BREATH,
 AND SCORN NOT GARLIC LIKE SOME THAT THINK
 IT ONLY MAKETH MEN WINK AND DRINK AND STINK.
   --  SIR JOHN HARRINGTON,
       "THE ENGLISHMAN'S DOCTOR", 1609
 Job cpu time:       2 days  0 hours 28 minutes 31.3 seconds.
 File lengths (MBytes):  RWF=   2911 Int=      0 D2E=      0 Chk=    180 Scr=      1
 Normal termination of Gaussian 09 at Tue Nov 28 01:35:09 2023.
