 Entering Gaussian System, Link 0=g09
 Input=darfpe_step1-sp.com
 Output=darfpe_step1-sp.log
 Initial command:
 /cluster/apps/gaussian/g09/l1.exe "/scratch/264093113.tmpdir/Gau-62668.inp" -scrdir="/scratch/264093113.tmpdir/"
 Entering Link 1 = /cluster/apps/gaussian/g09/l1.exe PID=     62696.
  
 Copyright (c) 1988,1990,1992,1993,1995,1998,2003,2009,2013,
            Gaussian, Inc.  All Rights Reserved.
  
 This is part of the Gaussian(R) 09 program.  It is based on
 the Gaussian(R) 03 system (copyright 2003, Gaussian, Inc.),
 the Gaussian(R) 98 system (copyright 1998, Gaussian, Inc.),
 the Gaussian(R) 94 system (copyright 1995, Gaussian, Inc.),
 the Gaussian 92(TM) system (copyright 1992, Gaussian, Inc.),
 the Gaussian 90(TM) system (copyright 1990, Gaussian, Inc.),
 the Gaussian 88(TM) system (copyright 1988, Gaussian, Inc.),
 the Gaussian 86(TM) system (copyright 1986, Carnegie Mellon
 University), and the Gaussian 82(TM) system (copyright 1983,
 Carnegie Mellon University). Gaussian is a federally registered
 trademark of Gaussian, Inc.
  
 This software contains proprietary and confidential information,
 including trade secrets, belonging to Gaussian, Inc.
  
 This software is provided under written license and may be
 used, copied, transmitted, or stored only in accord with that
 written license.
  
 The following legend is applicable only to US Government
 contracts under FAR:
  
                    RESTRICTED RIGHTS LEGEND
  
 Use, reproduction and disclosure by the US Government is
 subject to restrictions as set forth in subparagraphs (a)
 and (c) of the Commercial Computer Software - Restricted
 Rights clause in FAR 52.227-19.
  
 Gaussian, Inc.
 340 Quinnipiac St., Bldg. 40, Wallingford CT 06492
  
  
 ---------------------------------------------------------------
 Warning -- This program may not be used in any manner that
 competes with the business of Gaussian, Inc. or will provide
 assistance to any competitor of Gaussian, Inc.  The licensee
 of this program is prohibited from giving any competitor of
 Gaussian, Inc. access to this program.  By using this program,
 the user acknowledges that Gaussian, Inc. is engaged in the
 business of creating and licensing software in the field of
 computational chemistry and represents and warrants to the
 licensee that it is not a competitor of Gaussian, Inc. and that
 it will not use this program in any manner prohibited above.
 ---------------------------------------------------------------
  

 Cite this work as:
 Gaussian 09, Revision D.01,
 M. J. Frisch, G. W. Trucks, H. B. Schlegel, G. E. Scuseria, 
 M. A. Robb, J. R. Cheeseman, G. Scalmani, V. Barone, B. Mennucci, 
 G. A. Petersson, H. Nakatsuji, M. Caricato, X. Li, H. P. Hratchian, 
 A. F. Izmaylov, J. Bloino, G. Zheng, J. L. Sonnenberg, M. Hada, 
 M. Ehara, K. Toyota, R. Fukuda, J. Hasegawa, M. Ishida, T. Nakajima, 
 Y. Honda, O. Kitao, H. Nakai, T. Vreven, J. A. Montgomery, Jr., 
 J. E. Peralta, F. Ogliaro, M. Bearpark, J. J. Heyd, E. Brothers, 
 K. N. Kudin, V. N. Staroverov, T. Keith, R. Kobayashi, J. Normand, 
 K. Raghavachari, A. Rendell, J. C. Burant, S. S. Iyengar, J. Tomasi, 
 M. Cossi, N. Rega, J. M. Millam, M. Klene, J. E. Knox, J. B. Cross, 
 V. Bakken, C. Adamo, J. Jaramillo, R. Gomperts, R. E. Stratmann, 
 O. Yazyev, A. J. Austin, R. Cammi, C. Pomelli, J. W. Ochterski, 
 R. L. Martin, K. Morokuma, V. G. Zakrzewski, G. A. Voth, 
 P. Salvador, J. J. Dannenberg, S. Dapprich, A. D. Daniels, 
 O. Farkas, J. B. Foresman, J. V. Ortiz, J. Cioslowski, 
 and D. J. Fox, Gaussian, Inc., Wallingford CT, 2013.
 
 ******************************************
 Gaussian 09:  ES64L-G09RevD.01 24-Apr-2013
                27-Nov-2023 
 ******************************************
 %nprocshared=8
 Will use up to    8 processors via shared memory.
 %mem=16GB
 %oldchk=darfpe_step1.chk
 %chk=darfpe_step1-sp.chk
 Copying data from "darfpe_step1.chk" to current chk file "darfpe_step1-sp.chk".
 ----------------------------------------------------------------------
 #p sp geom=allcheck scrf(solvent=dichloromethane,smd) wb97xd genecp te
 mperature=313 integral(grid=ultrafine)
 ----------------------------------------------------------------------
 1/29=7,38=1,112=313000/1;
 2/12=2,40=1/2;
 3/5=7,11=2,14=-4,16=1,17=8,25=1,30=1,70=32201,72=9,74=-58,75=-5/1,2,3;
 4//1;
 5/5=2,38=5,53=9/2;
 6/7=2,8=2,9=2,10=2,28=1/1;
 99/5=1,9=1/99;
 Leave Link    1 at Mon Nov 27 12:33:12 2023, MaxMem=  2147483648 cpu:         1.9
 (Enter /cluster/apps/gaussian/g09/l101.exe)
 Structure from the checkpoint file:  "darfpe_step1-sp.chk"
 -----
 title
 -----
 Charge =  0 Multiplicity = 1
 Redundant internal coordinates found in file.
 Pd,0,0.0851990678,-0.3915292139,-0.0747970295
 Cl,0,0.3203015565,-0.4577362854,3.6890110125
 S,0,1.591260284,1.6139352105,1.9088661875
 P,0,-0.5138835227,-1.9723097137,-1.5348413848
 P,0,2.2185347692,-0.5859611535,-1.0130394366
 F,0,-4.0421329121,2.9804442425,0.0959037515
 F,0,-3.1405956386,5.2761673656,-0.9034121879
 F,0,-0.4684100021,5.7318531832,-1.1014659247
 F,0,1.2752909723,3.8661508674,-0.3433853504
 O,0,2.6215248886,0.6003296655,1.6545097355
 O,0,1.9704105509,3.0096710324,2.1019969022
 O,0,-5.0165917552,-0.2240406561,3.4019887437
 N,0,0.4609493486,1.4339902668,0.7688566476
 C,0,-1.7028973658,-0.3024870702,0.8663213142
 C,0,-2.1891105338,-1.4448771107,1.5135375339
 H,0,-1.6689578478,-2.3981065493,1.3974702656
 C,0,-3.2943295292,-1.4077456998,2.3522585796
 H,0,-3.6633620594,-2.3034765629,2.8561157078
 C,0,-3.9468897629,-0.1919115449,2.5793551826
 C,0,-5.7024716971,0.9685115183,3.6587006876
 H,0,-6.5386558862,0.7146782255,4.322619741
 H,0,-6.1037583717,1.419911861,2.7339739829
 H,0,-5.0612165099,1.7126456231,4.1640726376
 C,0,-3.4597906342,0.96522185,1.9733050191
 H,0,-3.9364789668,1.9239216837,2.1671977135
 C,0,-2.3423470802,0.9234894393,1.1177775125
 C,0,-1.8447965984,2.1948788681,0.546744555
 C,0,-2.724308601,3.1725292756,0.0750563561
 C,0,-2.2768172706,4.3744742678,-0.4643464515
 C,0,-0.9107008145,4.6103984153,-0.5589396843
 C,0,-0.0128167651,3.6378059766,-0.1322598533
 C,0,-0.4519031011,2.4393087471,0.4459818095
 C,0,0.8210537989,1.2145830366,3.4989197511
 H,0,1.579924977,1.4660661513,4.2520316217
 H,0,-0.0470634003,1.8802817653,3.5950901853
 C,0,1.9555259732,-1.4429490404,-2.6419692433
 H,0,1.5173206123,-0.702956706,-3.3282507041
 H,0,2.9075403676,-1.7836067444,-3.072775413
 C,0,1.0021836406,-2.6100262312,-2.4050953816
 H,0,1.4636610534,-3.3620396116,-1.7507011197
 H,0,0.7181381093,-3.1115370152,-3.3404158988
 C,0,3.1094800712,0.9520716386,-1.3912996311
 C,0,2.4498562344,1.8576163537,-2.2263249395
 C,0,2.9502352944,3.1213886623,-2.5041284314
 C,0,4.1410697538,3.5207285034,-1.904617033
 C,0,4.8169486768,2.6489080445,-1.0543108655
 C,0,4.3001558174,1.3816250763,-0.7974150601
 C,0,3.3662259484,-1.7388589805,-0.1976480414
 C,0,2.9999337618,-2.3953035965,0.9798619243
 C,0,3.8586004463,-3.3018854238,1.5991726804
 C,0,5.1033864604,-3.5675081154,1.03533066
 C,0,5.4884290187,-2.9353223176,-0.1475599431
 C,0,4.6142113281,-2.0402593325,-0.7491636173
 C,0,-1.4624132731,-3.42118371,-0.9572129209
 C,0,-0.8185566981,-4.4374208733,-0.2446007597
 C,0,-1.5180768622,-5.4617997002,0.3840187111
 C,0,-2.9107358429,-5.4699257347,0.3313620873
 C,0,-3.5846862844,-4.4590336404,-0.3495855145
 C,0,-2.8608726416,-3.4445783137,-0.9694654909
 C,0,-1.4740833429,-1.3260501292,-2.9540151203
 C,0,-1.8579613553,-2.1893080654,-3.9874969174
 C,0,-2.5741267056,-1.7533241544,-5.0937943882
 C,0,-2.9249454186,-0.4061530957,-5.1878030004
 C,0,-2.5569801174,0.4798928443,-4.1801826847
 C,0,-1.8397176155,0.0187766587,-3.0755117251
 F,0,1.8193762228,-2.2108978777,1.531986119
 F,0,4.9987321384,-1.451901273,-1.8743368251
 F,0,6.6665268742,-3.1954546468,-0.6818035086
 F,0,3.4927751089,-3.9189606244,2.705229596
 F,0,5.9167559246,-4.4249140424,1.612162485
 F,0,-1.5525654522,-3.4800732687,-3.9208861423
 F,0,-2.9243898706,-2.5954731484,-6.0459669917
 F,0,-3.5994631508,0.0230744022,-6.2300285806
 F,0,-2.8833255138,1.7520818938,-4.2716646426
 F,0,-1.5230445056,0.9155894839,-2.1671275443
 F,0,1.2732690603,1.5293344941,-2.7583030865
 F,0,4.9893225561,0.6068800478,0.0163424607
 F,0,5.9480249469,3.0283913636,-0.4930691054
 F,0,4.6286833639,4.7188949003,-2.1409569652
 F,0,2.2854753914,3.9484989434,-3.2857854971
 F,0,0.5043833743,-4.4396292259,-0.11449122
 F,0,-0.8747779198,-6.4092479744,1.0356164767
 F,0,-3.5856834087,-6.4293809303,0.9236692479
 F,0,-4.9008887911,-4.4549837071,-0.3860914085
 F,0,-3.5529206867,-2.4828012477,-1.5548677693
 Recover connectivity data from disk.
 NAtoms=     85 NQM=       85 NQMF=       0 NMMI=      0 NMMIF=      0
                NMic=       0 NMicF=      0.
                    Isotopes and Nuclear Properties:
 (Nuclear quadrupole moments (NQMom) in fm**2, nuclear magnetic moments (NMagM)
  in nuclear magnetons)

  Atom         1           2           3           4           5           6           7           8           9          10
 IAtWgt=         106          35          32          31          31          19          19          19          19          16
 AtmWgt= 105.9032000  34.9688527  31.9720718  30.9737634  30.9737634  18.9984033  18.9984033  18.9984033  18.9984033  15.9949146
 NucSpn=           0           3           0           1           1           1           1           1           1           0
 AtZEff=-237.3600000 -14.2400000 -13.6000000 -12.9400000 -12.9400000  -6.7500000  -6.7500000  -6.7500000  -6.7500000  -5.6000000
 NQMom=    0.0000000  -8.1650000   0.0000000   0.0000000   0.0000000   0.0000000   0.0000000   0.0000000   0.0000000   0.0000000
 NMagM=    0.0000000   0.8218740   0.0000000   1.1316000   1.1316000   2.6288670   2.6288670   2.6288670   2.6288670   0.0000000
 AtZNuc=  46.0000000  17.0000000  16.0000000  15.0000000  15.0000000   9.0000000   9.0000000   9.0000000   9.0000000   8.0000000

  Atom        11          12          13          14          15          16          17          18          19          20
 IAtWgt=          16          16          14          12          12           1          12           1          12          12
 AtmWgt=  15.9949146  15.9949146  14.0030740  12.0000000  12.0000000   1.0078250  12.0000000   1.0078250  12.0000000  12.0000000
 NucSpn=           0           0           2           0           0           1           0           1           0           0
 AtZEff=  -5.6000000  -5.6000000  -4.5500000  -3.6000000  -3.6000000  -1.0000000  -3.6000000  -1.0000000  -3.6000000  -3.6000000
 NQMom=    0.0000000   0.0000000   2.0440000   0.0000000   0.0000000   0.0000000   0.0000000   0.0000000   0.0000000   0.0000000
 NMagM=    0.0000000   0.0000000   0.4037610   0.0000000   0.0000000   2.7928460   0.0000000   2.7928460   0.0000000   0.0000000
 AtZNuc=   8.0000000   8.0000000   7.0000000   6.0000000   6.0000000   1.0000000   6.0000000   1.0000000   6.0000000   6.0000000

  Atom        21          22          23          24          25          26          27          28          29          30
 IAtWgt=           1           1           1          12           1          12          12          12          12          12
 AtmWgt=   1.0078250   1.0078250   1.0078250  12.0000000   1.0078250  12.0000000  12.0000000  12.0000000  12.0000000  12.0000000
 NucSpn=           1           1           1           0           1           0           0           0           0           0
 AtZEff=  -1.0000000  -1.0000000  -1.0000000  -3.6000000  -1.0000000  -3.6000000  -3.6000000  -3.6000000  -3.6000000  -3.6000000
 NQMom=    0.0000000   0.0000000   0.0000000   0.0000000   0.0000000   0.0000000   0.0000000   0.0000000   0.0000000   0.0000000
 NMagM=    2.7928460   2.7928460   2.7928460   0.0000000   2.7928460   0.0000000   0.0000000   0.0000000   0.0000000   0.0000000
 AtZNuc=   1.0000000   1.0000000   1.0000000   6.0000000   1.0000000   6.0000000   6.0000000   6.0000000   6.0000000   6.0000000

  Atom        31          32          33          34          35          36          37          38          39          40
 IAtWgt=          12          12          12           1           1          12           1           1          12           1
 AtmWgt=  12.0000000  12.0000000  12.0000000   1.0078250   1.0078250  12.0000000   1.0078250   1.0078250  12.0000000   1.0078250
 NucSpn=           0           0           0           1           1           0           1           1           0           1
 AtZEff=  -3.6000000  -3.6000000  -3.6000000  -1.0000000  -1.0000000  -3.6000000  -1.0000000  -1.0000000  -3.6000000  -1.0000000
 NQMom=    0.0000000   0.0000000   0.0000000   0.0000000   0.0000000   0.0000000   0.0000000   0.0000000   0.0000000   0.0000000
 NMagM=    0.0000000   0.0000000   0.0000000   2.7928460   2.7928460   0.0000000   2.7928460   2.7928460   0.0000000   2.7928460
 AtZNuc=   6.0000000   6.0000000   6.0000000   1.0000000   1.0000000   6.0000000   1.0000000   1.0000000   6.0000000   1.0000000

  Atom        41          42          43          44          45          46          47          48          49          50
 IAtWgt=           1          12          12          12          12          12          12          12          12          12
 AtmWgt=   1.0078250  12.0000000  12.0000000  12.0000000  12.0000000  12.0000000  12.0000000  12.0000000  12.0000000  12.0000000
 NucSpn=           1           0           0           0           0           0           0           0           0           0
 AtZEff=  -1.0000000  -3.6000000  -3.6000000  -3.6000000  -3.6000000  -3.6000000  -3.6000000  -3.6000000  -3.6000000  -3.6000000
 NQMom=    0.0000000   0.0000000   0.0000000   0.0000000   0.0000000   0.0000000   0.0000000   0.0000000   0.0000000   0.0000000
 NMagM=    2.7928460   0.0000000   0.0000000   0.0000000   0.0000000   0.0000000   0.0000000   0.0000000   0.0000000   0.0000000
 AtZNuc=   1.0000000   6.0000000   6.0000000   6.0000000   6.0000000   6.0000000   6.0000000   6.0000000   6.0000000   6.0000000

  Atom        51          52          53          54          55          56          57          58          59          60
 IAtWgt=          12          12          12          12          12          12          12          12          12          12
 AtmWgt=  12.0000000  12.0000000  12.0000000  12.0000000  12.0000000  12.0000000  12.0000000  12.0000000  12.0000000  12.0000000
 NucSpn=           0           0           0           0           0           0           0           0           0           0
 AtZEff=  -3.6000000  -3.6000000  -3.6000000  -3.6000000  -3.6000000  -3.6000000  -3.6000000  -3.6000000  -3.6000000  -3.6000000
 NQMom=    0.0000000   0.0000000   0.0000000   0.0000000   0.0000000   0.0000000   0.0000000   0.0000000   0.0000000   0.0000000
 NMagM=    0.0000000   0.0000000   0.0000000   0.0000000   0.0000000   0.0000000   0.0000000   0.0000000   0.0000000   0.0000000
 AtZNuc=   6.0000000   6.0000000   6.0000000   6.0000000   6.0000000   6.0000000   6.0000000   6.0000000   6.0000000   6.0000000

  Atom        61          62          63          64          65          66          67          68          69          70
 IAtWgt=          12          12          12          12          12          19          19          19          19          19
 AtmWgt=  12.0000000  12.0000000  12.0000000  12.0000000  12.0000000  18.9984033  18.9984033  18.9984033  18.9984033  18.9984033
 NucSpn=           0           0           0           0           0           1           1           1           1           1
 AtZEff=  -3.6000000  -3.6000000  -3.6000000  -3.6000000  -3.6000000  -6.7500000  -6.7500000  -6.7500000  -6.7500000  -6.7500000
 NQMom=    0.0000000   0.0000000   0.0000000   0.0000000   0.0000000   0.0000000   0.0000000   0.0000000   0.0000000   0.0000000
 NMagM=    0.0000000   0.0000000   0.0000000   0.0000000   0.0000000   2.6288670   2.6288670   2.6288670   2.6288670   2.6288670
 AtZNuc=   6.0000000   6.0000000   6.0000000   6.0000000   6.0000000   9.0000000   9.0000000   9.0000000   9.0000000   9.0000000

  Atom        71          72          73          74          75          76          77          78          79          80
 IAtWgt=          19          19          19          19          19          19          19          19          19          19
 AtmWgt=  18.9984033  18.9984033  18.9984033  18.9984033  18.9984033  18.9984033  18.9984033  18.9984033  18.9984033  18.9984033
 NucSpn=           1           1           1           1           1           1           1           1           1           1
 AtZEff=  -6.7500000  -6.7500000  -6.7500000  -6.7500000  -6.7500000  -6.7500000  -6.7500000  -6.7500000  -6.7500000  -6.7500000
 NQMom=    0.0000000   0.0000000   0.0000000   0.0000000   0.0000000   0.0000000   0.0000000   0.0000000   0.0000000   0.0000000
 NMagM=    2.6288670   2.6288670   2.6288670   2.6288670   2.6288670   2.6288670   2.6288670   2.6288670   2.6288670   2.6288670
 AtZNuc=   9.0000000   9.0000000   9.0000000   9.0000000   9.0000000   9.0000000   9.0000000   9.0000000   9.0000000   9.0000000

  Atom        81          82          83          84          85
 IAtWgt=          19          19          19          19          19
 AtmWgt=  18.9984033  18.9984033  18.9984033  18.9984033  18.9984033
 NucSpn=           1           1           1           1           1
 AtZEff=  -6.7500000  -6.7500000  -6.7500000  -6.7500000  -6.7500000
 NQMom=    0.0000000   0.0000000   0.0000000   0.0000000   0.0000000
 NMagM=    2.6288670   2.6288670   2.6288670   2.6288670   2.6288670
 AtZNuc=   9.0000000   9.0000000   9.0000000   9.0000000   9.0000000
 Leave Link  101 at Mon Nov 27 12:33:12 2023, MaxMem=  2147483648 cpu:         2.3
 (Enter /cluster/apps/gaussian/g09/l202.exe)
 Stoichiometry    C40H12ClF24NO3P2PdS
 Framework group  C1[X(C40H12ClF24NO3P2PdS)]
 Deg. of freedom   249
 Full point group                 C1      NOp   1
 RotChk:  IX=0 Diff= 2.20D-15
 Largest Abelian subgroup         C1      NOp   1
 Largest concise Abelian subgroup C1      NOp   1
                         Standard orientation:                         
 ---------------------------------------------------------------------
 Center     Atomic      Atomic             Coordinates (Angstroms)
 Number     Number       Type             X           Y           Z
 ---------------------------------------------------------------------
      1         46           0       -0.075436    0.079583   -0.368405
      2         17           0        0.281979    0.935649   -4.024266
      3         16           0        2.217926   -0.742656   -2.439502
      4         15           0       -1.344521    0.983418    1.232221
      5         15           0        1.737710    0.936431    0.834732
      6          9           0       -2.410078   -4.570495   -1.534778
      7          9           0       -0.680602   -6.452477   -0.793964
      8          9           0        1.926381   -5.823703   -0.351547
      9          9           0        2.766761   -3.308830   -0.606885
     10          8           0        2.719431    0.532682   -1.914580
     11          8           0        3.152489   -1.805388   -2.794926
     12          8           0       -4.479252   -1.472817   -4.410783
     13          7           0        1.064754   -1.248420   -1.427572
     14          6           0       -1.618907   -0.543467   -1.517503
     15          6           0       -2.506821    0.405899   -2.037751
     16          1           0       -2.437003    1.447851   -1.718158
     17          6           0       -3.456584    0.084795   -2.997534
     18          1           0       -4.141872    0.833409   -3.400458
     19          6           0       -3.532146   -1.225077   -3.481463
     20          6           0       -4.593417   -2.769688   -4.924209
     21          1           0       -5.428110   -2.754423   -5.636585
     22          1           0       -4.811831   -3.508178   -4.132477
     23          1           0       -3.678133   -3.084683   -5.456543
     24          6           0       -2.635409   -2.179624   -3.003736
     25          1           0       -2.659938   -3.194486   -3.395378
     26          6           0       -1.677230   -1.852616   -2.025315
     27          6           0       -0.721804   -2.898851   -1.597974
     28          6           0       -1.134508   -4.216812   -1.387058
     29          6           0       -0.252024   -5.215017   -0.986205
     30          6           0        1.082296   -4.894978   -0.767008
     31          6           0        1.511737   -3.582563   -0.932339
     32          6           0        0.640090   -2.576823   -1.370832
     33          6           0        1.424718   -0.397634   -4.030964
     34          1           0        2.252821   -0.177500   -4.718054
     35          1           0        0.918269   -1.325427   -4.328858
     36          6           0        1.067619    1.295028    2.531612
     37          1           0        0.946792    0.327480    3.041363
     38          1           0        1.770414    1.902738    3.118758
     39          6           0       -0.273402    2.002183    2.362400
     40          1           0       -0.137907    2.983914    1.888519
     41          1           0       -0.782874    2.163067    3.322387
     42          6           0        3.170190   -0.154722    1.079259
     43          6           0        2.910528   -1.387437    1.683717
     44          6           0        3.878713   -2.371000    1.824773
     45          6           0        5.153610   -2.138417    1.317313
     46          6           0        5.442778   -0.926548    0.694691
     47          6           0        4.457275    0.049663    0.572738
     48          6           0        2.336551    2.583421    0.344788
     49          6           0        1.784150    3.244315   -0.755072
     50          6           0        2.214266    4.517730   -1.124071
     51          6           0        3.208075    5.151050   -0.382981
     52          6           0        3.767147    4.518437    0.728048
     53          6           0        3.318920    3.252400    1.079565
     54          6           0       -2.783050    2.008693    0.771739
     55          6           0       -2.589401    3.311460    0.302267
     56          6           0       -3.622662    4.065819   -0.242854
     57          6           0       -4.892882    3.503432   -0.355103
     58          6           0       -5.114638    2.199267    0.080533
     59          6           0       -4.063056    1.465200    0.621457
     60          6           0       -2.011737   -0.246681    2.413478
     61          6           0       -2.767042    0.180038    3.512608
     62          6           0       -3.286042   -0.705088    4.447520
     63          6           0       -3.047559   -2.071302    4.294661
     64          6           0       -2.298387   -2.529671    3.215581
     65          6           0       -1.788936   -1.621878    2.286193
     66          9           0        0.814283    2.707434   -1.464776
     67          9           0        3.861889    2.669633    2.140510
     68          9           0        4.704045    5.125549    1.431352
     69          9           0        1.675435    5.130188   -2.159700
     70          9           0        3.615617    6.354248   -0.723092
     71          9           0       -3.024513    1.472317    3.678447
     72          9           0       -3.998326   -0.268609    5.467652
     73          9           0       -3.528641   -2.921676    5.172652
     74          9           0       -2.068809   -3.818359    3.074472
     75          9           0       -1.086370   -2.129032    1.296793
     76          9           0        1.681249   -1.665392    2.115856
     77          9           0        4.797288    1.173033   -0.027105
     78          9           0        6.653402   -0.707328    0.220702
     79          9           0        6.084760   -3.060565    1.426074
     80          9           0        3.584140   -3.525512    2.388096
     81          9           0       -1.383256    3.869534    0.331799
     82          9           0       -3.403639    5.295314   -0.662905
     83          9           0       -5.878438    4.202695   -0.871482
     84          9           0       -6.309632    1.659713   -0.040339
     85          9           0       -4.317352    0.215613    0.968599
 ---------------------------------------------------------------------
 Rotational constants (GHZ):      0.0313605      0.0282973      0.0229044
 Leave Link  202 at Mon Nov 27 12:33:12 2023, MaxMem=  2147483648 cpu:         0.6
 (Enter /cluster/apps/gaussian/g09/l301.exe)
 General basis read from cards:  (5D, 7F)
 Centers:      14     15     17     19     20     24     26     27     28     29
 Centers:      30     31     32     33     36     39     42     43     44     45
 Centers:      46     47     48     49     50     51     52     53     54     55
 Centers:      56     57     58     59     60     61     62     63     64     65
 Centers:      16     18     21     22     23     25     34     35     37     38
 Centers:      40     41      3      6      7      8      9     66     67     68
 Centers:      69     70     71     72     73     74     75     76     77     78
 Centers:      79     80     81     82     83     84     85     13      4      5
 Centers:       2     10     11     12      1
 def2tzvp
 ****
 ======================================================================================================
                                       Pseudopotential Parameters
 ======================================================================================================
  Center     Atomic      Valence      Angular      Power
  Number     Number     Electrons     Momentum     of R      Exponent        Coefficient   SO-Coeffient
 ======================================================================================================
    1         46           18
                                      G and up 
                                                     2        1.0000000        0.00000000    0.00000000
                                      S - G
                                                     2       12.4300000      240.22904000    0.00000000
                                                     2        6.1707590       35.17194300    0.00000000
                                      P - G
                                                     2       11.0800000      170.41727600    0.00000000
                                                     2        5.8295540       28.47213300    0.00000000
                                      D - G
                                                     2        9.5100000       69.01384500    0.00000000
                                                     2        4.1397810       11.75086200    0.00000000
                                      F - G
                                                     2       13.2700000      -31.92955400    0.00000000
                                                     2        6.6300000       -5.39821700    0.00000000
    2         17
                                   No pseudopotential on this center.
    3         16
                                   No pseudopotential on this center.
    4         15
                                   No pseudopotential on this center.
    5         15
                                   No pseudopotential on this center.
    6          9
                                   No pseudopotential on this center.
    7          9
                                   No pseudopotential on this center.
    8          9
                                   No pseudopotential on this center.
    9          9
                                   No pseudopotential on this center.
   10          8
                                   No pseudopotential on this center.
   11          8
                                   No pseudopotential on this center.
   12          8
                                   No pseudopotential on this center.
   13          7
                                   No pseudopotential on this center.
   14          6
                                   No pseudopotential on this center.
   15          6
                                   No pseudopotential on this center.
   16          1
                                   No pseudopotential on this center.
   17          6
                                   No pseudopotential on this center.
   18          1
                                   No pseudopotential on this center.
   19          6
                                   No pseudopotential on this center.
   20          6
                                   No pseudopotential on this center.
   21          1
                                   No pseudopotential on this center.
   22          1
                                   No pseudopotential on this center.
   23          1
                                   No pseudopotential on this center.
   24          6
                                   No pseudopotential on this center.
   25          1
                                   No pseudopotential on this center.
   26          6
                                   No pseudopotential on this center.
   27          6
                                   No pseudopotential on this center.
   28          6
                                   No pseudopotential on this center.
   29          6
                                   No pseudopotential on this center.
   30          6
                                   No pseudopotential on this center.
   31          6
                                   No pseudopotential on this center.
   32          6
                                   No pseudopotential on this center.
   33          6
                                   No pseudopotential on this center.
   34          1
                                   No pseudopotential on this center.
   35          1
                                   No pseudopotential on this center.
   36          6
                                   No pseudopotential on this center.
   37          1
                                   No pseudopotential on this center.
   38          1
                                   No pseudopotential on this center.
   39          6
                                   No pseudopotential on this center.
   40          1
                                   No pseudopotential on this center.
   41          1
                                   No pseudopotential on this center.
   42          6
                                   No pseudopotential on this center.
   43          6
                                   No pseudopotential on this center.
   44          6
                                   No pseudopotential on this center.
   45          6
                                   No pseudopotential on this center.
   46          6
                                   No pseudopotential on this center.
   47          6
                                   No pseudopotential on this center.
   48          6
                                   No pseudopotential on this center.
   49          6
                                   No pseudopotential on this center.
   50          6
                                   No pseudopotential on this center.
   51          6
                                   No pseudopotential on this center.
   52          6
                                   No pseudopotential on this center.
   53          6
                                   No pseudopotential on this center.
   54          6
                                   No pseudopotential on this center.
   55          6
                                   No pseudopotential on this center.
   56          6
                                   No pseudopotential on this center.
   57          6
                                   No pseudopotential on this center.
   58          6
                                   No pseudopotential on this center.
   59          6
                                   No pseudopotential on this center.
   60          6
                                   No pseudopotential on this center.
   61          6
                                   No pseudopotential on this center.
   62          6
                                   No pseudopotential on this center.
   63          6
                                   No pseudopotential on this center.
   64          6
                                   No pseudopotential on this center.
   65          6
                                   No pseudopotential on this center.
   66          9
                                   No pseudopotential on this center.
   67          9
                                   No pseudopotential on this center.
   68          9
                                   No pseudopotential on this center.
   69          9
                                   No pseudopotential on this center.
   70          9
                                   No pseudopotential on this center.
   71          9
                                   No pseudopotential on this center.
   72          9
                                   No pseudopotential on this center.
   73          9
                                   No pseudopotential on this center.
   74          9
                                   No pseudopotential on this center.
   75          9
                                   No pseudopotential on this center.
   76          9
                                   No pseudopotential on this center.
   77          9
                                   No pseudopotential on this center.
   78          9
                                   No pseudopotential on this center.
   79          9
                                   No pseudopotential on this center.
   80          9
                                   No pseudopotential on this center.
   81          9
                                   No pseudopotential on this center.
   82          9
                                   No pseudopotential on this center.
   83          9
                                   No pseudopotential on this center.
   84          9
                                   No pseudopotential on this center.
   85          9
                                   No pseudopotential on this center.
 ======================================================================================================
 Ernie: Thresh=  0.10000D-02 Tol=  0.10000D-05 Strict=F.
 There are  2734 symmetry adapted cartesian basis functions of A   symmetry.
 There are  2368 symmetry adapted basis functions of A   symmetry.
  2368 basis functions,  3914 primitive gaussians,  2734 cartesian basis functions
   290 alpha electrons      290 beta electrons
       nuclear repulsion energy     16713.4802453440 Hartrees.
 IExCor= 4639 DFT=T Ex+Corr=wB97XD ExCW=0 ScaHFX=  1.000000
 ScaDFX=  1.000000  1.000000  1.000000  1.000000 ScalE2=  1.000000  1.000000
 IRadAn=      5 IRanWt=     -1 IRanGd=            0 ICorTp=0 IEmpDi=121
  HFx wShort=  0.000000 wLong=  0.200000 cFull=  0.222036 cShort=  0.000000 cLong=  0.777964
  DFx wShort=  0.000000 wLong=  0.200000 cFull=  0.000000 cShort=  0.000000 cLong=  1.000000
 NAtoms=   85 NActive=   85 NUniq=   85 SFac= 1.00D+00 NAtFMM=   60 NAOKFM=T Big=T
 Integral buffers will be    131072 words long.
 Raffenetti 2 integral format.
 Two-electron integral symmetry is turned on.
 R6Disp:  Grimme-D2 Dispersion energy=       -0.1183730049 Hartrees.
 Nuclear repulsion after empirical dispersion term =    16713.3618723391 Hartrees.
 ------------------------------------------------------------------------------
 Polarizable Continuum Model (PCM)
 =================================
 Model                : PCM (using non-symmetric T matrix).
 Atomic radii         : SMD-Coulomb.
 Polarization charges : Total charges.
 Charge compensation  : None.
 Solution method      : On-the-fly selection.
 Cavity type          : VdW (van der Waals Surface) (Alpha=1.000).
 Cavity algorithm     : GePol (No added spheres)
                        Default sphere list used, NSphG=   85.
                        Lebedev-Laikov grids with approx.  5.0 points / Ang**2.
                        Smoothing algorithm: Karplus/York (Gamma=1.0000).
                        Polarization charges: spherical gaussians, with
                                              point-specific exponents (IZeta= 3).
                        Self-potential: point-specific (ISelfS= 7).
                        Self-field    : sphere-specific E.n sum rule (ISelfD= 2).
 Solvent              : Dichloromethane, Eps=   8.930000 Eps(inf)=   2.028346
 ------------------------------------------------------------------------------
 GePol: Number of generator spheres                  =      85
 GePol: Total number of spheres                      =      85
 GePol: Number of exposed spheres                    =      85 (100.00%)
 GePol: Number of points                             =    6346
 GePol: Average weight of points                     =       0.13
 GePol: Minimum weight of points                     =   0.15D-10
 GePol: Maximum weight of points                     =    0.21501
 GePol: Number of points with low weight             =     380
 GePol: Fraction of low-weight points (<1% of avg)   =       5.99%
 GePol: Cavity surface area                          =    824.865 Ang**2
 GePol: Cavity volume                                =    939.650 Ang**3
 ------------------------------------------------------------------------------
 Atomic radii for non-electrostatic terms: SMD-CDS.
 ------------------------------------------------------------------------------
 PCM non-electrostatic energy =        -0.0008990251 Hartrees.
 Nuclear repulsion after PCM non-electrostatic terms =    16713.3609733140 Hartrees.
 Leave Link  301 at Mon Nov 27 12:33:13 2023, MaxMem=  2147483648 cpu:         0.4
 (Enter /cluster/apps/gaussian/g09/l302.exe)
 NPDir=0 NMtPBC=     1 NCelOv=     1 NCel=       1 NClECP=     1 NCelD=      1
         NCelK=      1 NCelE2=     1 NClLst=     1 CellRange=     0.0.
 One-electron integrals computed using PRISM.
   1 Symmetry operations used in ECPInt.
 ECPInt:  NShTT=  371953 NPrTT= 1220830 LenC2=  245220 LenP2D=  492399.
 LDataN:  DoStor=T MaxTD1= 7 Len=  274
 NBasis=  2368 RedAO= T EigKep=  3.99D-06  NBF=  2368
 NBsUse=  2368 1.00D-06 EigRej= -1.00D+00 NBFU=  2368
 Precomputing XC quadrature grid using
 IXCGrd= 4 IRadAn=           5 IRanWt=          -1 IRanGd=           0 AccXCQ= 0.00D+00.
 Defaulting to unpruned grid for atomic number  46.
 Generated NRdTot=       0 NPtTot=           0 NUsed=           0 NTot=          32
 NSgBfM=  2202  2211  2228  2241  2241 MxSgAt=    85 MxSgA2=    85.
 Leave Link  302 at Mon Nov 27 12:33:35 2023, MaxMem=  2147483648 cpu:       177.0
 (Enter /cluster/apps/gaussian/g09/l303.exe)
 DipDrv:  MaxL=1.
 Leave Link  303 at Mon Nov 27 12:33:37 2023, MaxMem=  2147483648 cpu:         9.9
 (Enter /cluster/apps/gaussian/g09/l401.exe)
 ExpMin= 3.70D-02 ExpMax= 6.95D+04 ExpMxC= 2.37D+03 IAcc=3 IRadAn=         5 AccDes= 0.00D+00
 Harris functional with IExCor= 4639 and IRadAn=       5 diagonalized for initial guess.
 HarFok:  IExCor= 4639 AccDes= 0.00D+00 IRadAn=         5 IDoV= 1 UseB2=F ITyADJ=14
 ICtDFT=  3500011 ScaDFX=  1.000000  1.000000  1.000000  1.000000
 Defaulting to unpruned grid for atomic number  46.
 Defaulting to unpruned grid for atomic number  46.
 Defaulting to unpruned grid for atomic number  46.
 Defaulting to unpruned grid for atomic number  46.
 Defaulting to unpruned grid for atomic number  46.
 Defaulting to unpruned grid for atomic number  46.
 Defaulting to unpruned grid for atomic number  46.
 Defaulting to unpruned grid for atomic number  46.
 FoFCou: FMM=F IPFlag=           0 FMFlag=      100000 FMFlg1=        2001
         NFxFlg=           0 DoJE=T BraDBF=F KetDBF=T FulRan=T
         wScrn=  0.000000 ICntrl=     500 IOpCl=  0 I1Cent=   200000004 NGrid=           0
         NMat0=    1 NMatS0=      1 NMatT0=    0 NMatD0=    1 NMtDS0=    0 NMtDT0=    0
 Petite list used in FoFCou.
 Harris En= -5698.03399263641    
 JPrj=0 DoOrth=F DoCkMO=F.
 Leave Link  401 at Mon Nov 27 12:34:42 2023, MaxMem=  2147483648 cpu:       509.6
 (Enter /cluster/apps/gaussian/g09/l502.exe)
 Closed shell SCF:
 Using DIIS extrapolation, IDIIS=  1040.
 Integral symmetry usage will be decided dynamically.
 IVT=    22484494 IEndB=    22484494 NGot=  2147483648 MDV=  2132493285
 LenX=  2132493285 LenY=  2125015795
 Requested convergence on RMS density matrix=1.00D-08 within 128 cycles.
 Requested convergence on MAX density matrix=1.00D-06.
 Requested convergence on             energy=1.00D-06.
 No special actions if energy rises.
 Fock matrices will be formed incrementally for  20 cycles.

 Cycle   1  Pass 1  IDiag  1:
 FoFJK:  IHMeth= 1 ICntrl=       0 DoSepK=T KAlg= 0 I1Cent=   0 FoldK=F
 IRaf=         1 NMat=   1 IRICut=       1 DoRegI=T DoRafI=F ISym2E= 0.
 FoFCou: FMM=T IPFlag=           0 FMFlag=      100000 FMFlg1=        2001
         NFxFlg=           0 DoJE=T BraDBF=F KetDBF=F FulRan=T
         wScrn=  0.000000 ICntrl=     500 IOpCl=  0 I1Cent=           0 NGrid=           0
         NMat0=    1 NMatS0=      1 NMatT0=    0 NMatD0=    1 NMtDS0=    0 NMtDT0=    0
 Symmetry not used in FoFCou.
 FMM levels:  10  Number of levels for PrismC:   9
 Defaulting to unpruned grid for atomic number  46.
 Defaulting to unpruned grid for atomic number  46.
 Defaulting to unpruned grid for atomic number  46.
 Defaulting to unpruned grid for atomic number  46.
 Defaulting to unpruned grid for atomic number  46.
 Defaulting to unpruned grid for atomic number  46.
 Defaulting to unpruned grid for atomic number  46.
 Defaulting to unpruned grid for atomic number  46.
 Inv3:  Mode=1 IEnd=   120815148.
 Iteration    1 A*A^-1 deviation from unit magnitude is 7.33D-15 for   6333.
 Iteration    1 A*A^-1 deviation from orthogonality  is 5.37D-15 for   3423   1278.
 Iteration    1 A^-1*A deviation from unit magnitude is 6.88D-15 for   6333.
 Iteration    1 A^-1*A deviation from orthogonality  is 1.83D-10 for   3793   3684.
 Iteration    2 A*A^-1 deviation from unit magnitude is 4.00D-15 for    628.
 Iteration    2 A*A^-1 deviation from orthogonality  is 3.14D-15 for   5012     61.
 Iteration    2 A^-1*A deviation from unit magnitude is 1.22D-15 for    673.
 Iteration    2 A^-1*A deviation from orthogonality  is 4.45D-16 for   6338   5555.
 E= -5867.45574837727    
 DIIS: error= 4.75D-02 at cycle   1 NSaved=   1.
 NSaved= 1 IEnMin= 1 EnMin= -5867.45574837727     IErMin= 1 ErrMin= 4.75D-02
 ErrMax= 4.75D-02  0.00D+00 EMaxC= 1.00D-01 BMatC= 2.13D+01 BMatP= 2.13D+01
 IDIUse=3 WtCom= 5.25D-01 WtEn= 4.75D-01
 Coeff-Com:  0.100D+01
 Coeff-En:   0.100D+01
 Coeff:      0.100D+01
 Gap=     0.616 Goal=   None    Shift=    0.000
 GapD=    0.616 DampG=2.000 DampE=0.250 DampFc=0.5000 IDamp=-1.
 Damping current iteration by 5.00D-01
 RMSDP=3.58D-02 MaxDP=1.44D+01              OVMax= 9.53D-01

 Cycle   2  Pass 1  IDiag  1:
 RMSU=  1.78D-02    CP:  1.20D+00
 E= -5864.63623801699     Delta-E=        2.819510360285 Rises=F Damp=T
 DIIS: error= 1.93D-02 at cycle   2 NSaved=   2.
 NSaved= 2 IEnMin= 1 EnMin= -5867.45574837727     IErMin= 2 ErrMin= 1.93D-02
 ErrMax= 1.93D-02  0.00D+00 EMaxC= 1.00D-01 BMatC= 6.47D+00 BMatP= 2.13D+01
 IDIUse=3 WtCom= 8.07D-01 WtEn= 1.93D-01
 Coeff-Com:  0.202D+00 0.798D+00
 Coeff-En:   0.582D+00 0.418D+00
 Coeff:      0.275D+00 0.725D+00
 Gap=    -0.087 Goal=   None    Shift=    0.000
 RMSDP=1.87D-02 MaxDP=7.11D+00 DE= 2.82D+00 OVMax= 9.72D-01

 Cycle   3  Pass 1  IDiag  1:
 RMSU=  3.64D-03    CP:  4.52D-01  3.46D-02
 E= -5857.69776580232     Delta-E=        6.938472214668 Rises=F Damp=F
 DIIS: error= 3.65D-02 at cycle   3 NSaved=   3.
 NSaved= 3 IEnMin= 1 EnMin= -5867.45574837727     IErMin= 2 ErrMin= 1.93D-02
 ErrMax= 3.65D-02  0.00D+00 EMaxC= 1.00D-01 BMatC= 1.62D+01 BMatP= 6.47D+00
 IDIUse=2 WtCom= 0.00D+00 WtEn= 1.00D+00
 EnCoef did    19 forward-backward iterations
 Coeff-En:   0.438D+00 0.450D+00 0.112D+00
 Coeff:      0.438D+00 0.450D+00 0.112D+00
 Gap=    -0.114 Goal=   None    Shift=    0.000
 RMSDP=3.85D-03 MaxDP=2.62D+00 DE= 6.94D+00 OVMax= 8.35D-01

 Cycle   4  Pass 1  IDiag  1:
 RMSU=  3.27D-03    CP:  4.53D-01  1.34D-01  7.16D-01
 E= -5874.33403139194     Delta-E=      -16.636265589623 Rises=F Damp=F
 DIIS: error= 1.69D-02 at cycle   4 NSaved=   4.
 NSaved= 4 IEnMin= 4 EnMin= -5874.33403139194     IErMin= 4 ErrMin= 1.69D-02
 ErrMax= 1.69D-02  0.00D+00 EMaxC= 1.00D-01 BMatC= 4.97D+00 BMatP= 6.47D+00
 IDIUse=3 WtCom= 8.31D-01 WtEn= 1.69D-01
 EnCoef did   100 forward-backward iterations
 Coeff-Com:  0.178D+00 0.152D+00 0.145D+00 0.526D+00
 Coeff-En:   0.271D+00 0.000D+00 0.388D-02 0.725D+00
 Coeff:      0.194D+00 0.126D+00 0.121D+00 0.559D+00
 Gap=     0.101 Goal=   None    Shift=    0.000
 RMSDP=3.05D-03 MaxDP=2.24D+00 DE=-1.66D+01 OVMax= 3.35D-01

 Cycle   5  Pass 1  IDiag  1:
 RMSU=  1.75D-03    CP:  4.38D-01  3.57D-02  6.15D-01  4.65D-01
 E= -5877.19797897441     Delta-E=       -2.863947582471 Rises=F Damp=F
 DIIS: error= 5.41D-03 at cycle   5 NSaved=   5.
 NSaved= 5 IEnMin= 5 EnMin= -5877.19797897441     IErMin= 5 ErrMin= 5.41D-03
 ErrMax= 5.41D-03  0.00D+00 EMaxC= 1.00D-01 BMatC= 4.12D-01 BMatP= 4.97D+00
 IDIUse=3 WtCom= 9.46D-01 WtEn= 5.41D-02
 Coeff-Com:  0.260D-01-0.282D-01 0.445D-01 0.212D+00 0.746D+00
 Coeff-En:   0.000D+00 0.000D+00 0.000D+00 0.000D+00 0.100D+01
 Coeff:      0.246D-01-0.267D-01 0.421D-01 0.200D+00 0.759D+00
 Gap=     0.315 Goal=   None    Shift=    0.000
 RMSDP=9.29D-04 MaxDP=2.74D-01 DE=-2.86D+00 OVMax= 9.06D-02

 Cycle   6  Pass 1  IDiag  1:
 RMSU=  6.54D-04    CP:  3.88D-01  1.85D-02  6.78D-01  4.37D-01  8.18D-01
 E= -5877.48232704962     Delta-E=       -0.284348075205 Rises=F Damp=F
 DIIS: error= 2.92D-03 at cycle   6 NSaved=   6.
 NSaved= 6 IEnMin= 6 EnMin= -5877.48232704962     IErMin= 6 ErrMin= 2.92D-03
 ErrMax= 2.92D-03  0.00D+00 EMaxC= 1.00D-01 BMatC= 8.47D-02 BMatP= 4.12D-01
 IDIUse=3 WtCom= 9.71D-01 WtEn= 2.92D-02
 Coeff-Com:  0.364D-03-0.650D-02 0.142D-01-0.188D-01 0.268D+00 0.743D+00
 Coeff-En:   0.000D+00 0.000D+00 0.000D+00 0.000D+00 0.595D-01 0.940D+00
 Coeff:      0.353D-03-0.632D-02 0.138D-01-0.183D-01 0.262D+00 0.749D+00
 Gap=     0.289 Goal=   None    Shift=    0.000
 RMSDP=2.86D-04 MaxDP=1.63D-01 DE=-2.84D-01 OVMax= 2.96D-02

 Cycle   7  Pass 1  IDiag  1:
 RMSU=  1.86D-04    CP:  3.83D-01  1.34D-02  6.74D-01  3.95D-01  8.96D-01
                    CP:  9.85D-01
 E= -5877.54199586069     Delta-E=       -0.059668811075 Rises=F Damp=F
 DIIS: error= 4.08D-04 at cycle   7 NSaved=   7.
 NSaved= 7 IEnMin= 7 EnMin= -5877.54199586069     IErMin= 7 ErrMin= 4.08D-04
 ErrMax= 4.08D-04  0.00D+00 EMaxC= 1.00D-01 BMatC= 4.64D-03 BMatP= 8.47D-02
 IDIUse=3 WtCom= 9.96D-01 WtEn= 4.08D-03
 Coeff-Com:  0.882D-03-0.168D-02 0.136D-02-0.205D-01 0.528D-01 0.282D+00
 Coeff-Com:  0.686D+00
 Coeff-En:   0.000D+00 0.000D+00 0.000D+00 0.000D+00 0.000D+00 0.000D+00
 Coeff-En:   0.100D+01
 Coeff:      0.878D-03-0.167D-02 0.136D-02-0.204D-01 0.525D-01 0.280D+00
 Coeff:      0.687D+00
 Gap=     0.281 Goal=   None    Shift=    0.000
 RMSDP=7.21D-05 MaxDP=1.16D-02 DE=-5.97D-02 OVMax= 1.28D-02

 Cycle   8  Pass 1  IDiag  1:
 RMSU=  4.91D-05    CP:  3.82D-01  1.23D-02  6.75D-01  3.94D-01  8.83D-01
                    CP:  1.04D+00  8.74D-01
 E= -5877.54552898963     Delta-E=       -0.003533128944 Rises=F Damp=F
 DIIS: error= 2.29D-04 at cycle   8 NSaved=   8.
 NSaved= 8 IEnMin= 8 EnMin= -5877.54552898963     IErMin= 8 ErrMin= 2.29D-04
 ErrMax= 2.29D-04  0.00D+00 EMaxC= 1.00D-01 BMatC= 9.16D-04 BMatP= 4.64D-03
 IDIUse=3 WtCom= 9.98D-01 WtEn= 2.29D-03
 Coeff-Com: -0.376D-03 0.145D-02-0.562D-03-0.546D-02-0.436D-02 0.195D-01
 Coeff-Com:  0.315D+00 0.674D+00
 Coeff-En:   0.000D+00 0.000D+00 0.000D+00 0.000D+00 0.000D+00 0.000D+00
 Coeff-En:   0.253D-01 0.975D+00
 Coeff:     -0.375D-03 0.144D-02-0.560D-03-0.544D-02-0.435D-02 0.194D-01
 Coeff:      0.315D+00 0.675D+00
 Gap=     0.279 Goal=   None    Shift=    0.000
 RMSDP=2.65D-05 MaxDP=4.71D-03 DE=-3.53D-03 OVMax= 7.26D-03

 Cycle   9  Pass 1  IDiag  1:
 RMSU=  2.14D-05    CP:  3.82D-01  1.24D-02  6.75D-01  3.95D-01  8.86D-01
                    CP:  1.03D+00  9.47D-01  9.39D-01
 E= -5877.54637766976     Delta-E=       -0.000848680127 Rises=F Damp=F
 DIIS: error= 7.65D-05 at cycle   9 NSaved=   9.
 NSaved= 9 IEnMin= 9 EnMin= -5877.54637766976     IErMin= 9 ErrMin= 7.65D-05
 ErrMax= 7.65D-05  0.00D+00 EMaxC= 1.00D-01 BMatC= 8.63D-05 BMatP= 9.16D-04
 IDIUse=1 WtCom= 1.00D+00 WtEn= 0.00D+00
 Coeff-Com: -0.581D-03 0.107D-02-0.347D-03-0.503D-03-0.118D-02-0.654D-02
 Coeff-Com:  0.705D-01 0.257D+00 0.681D+00
 Coeff:     -0.581D-03 0.107D-02-0.347D-03-0.503D-03-0.118D-02-0.654D-02
 Coeff:      0.705D-01 0.257D+00 0.681D+00
 Gap=     0.279 Goal=   None    Shift=    0.000
 RMSDP=9.43D-06 MaxDP=9.95D-04 DE=-8.49D-04 OVMax= 2.63D-03

 Cycle  10  Pass 1  IDiag  1:
 RMSU=  7.57D-06    CP:  3.82D-01  1.25D-02  6.75D-01  3.95D-01  8.87D-01
                    CP:  1.03D+00  9.48D-01  1.03D+00  1.04D+00
 E= -5877.54648125337     Delta-E=       -0.000103583603 Rises=F Damp=F
 DIIS: error= 5.74D-05 at cycle  10 NSaved=  10.
 NSaved=10 IEnMin=10 EnMin= -5877.54648125337     IErMin=10 ErrMin= 5.74D-05
 ErrMax= 5.74D-05  0.00D+00 EMaxC= 1.00D-01 BMatC= 2.36D-05 BMatP= 8.63D-05
 IDIUse=1 WtCom= 1.00D+00 WtEn= 0.00D+00
 Coeff-Com: -0.284D-03 0.212D-03-0.172D-03 0.106D-02 0.309D-02 0.647D-03
 Coeff-Com: -0.452D-01-0.658D-01 0.260D+00 0.847D+00
 Coeff:     -0.284D-03 0.212D-03-0.172D-03 0.106D-02 0.309D-02 0.647D-03
 Coeff:     -0.452D-01-0.658D-01 0.260D+00 0.847D+00
 Gap=     0.279 Goal=   None    Shift=    0.000
 RMSDP=7.07D-06 MaxDP=1.72D-03 DE=-1.04D-04 OVMax= 2.33D-03

 Cycle  11  Pass 1  IDiag  1:
 RMSU=  4.29D-06    CP:  3.82D-01  1.26D-02  6.74D-01  3.96D-01  8.87D-01
                    CP:  1.03D+00  9.47D-01  1.06D+00  1.18D+00  1.26D+00
 E= -5877.54652076880     Delta-E=       -0.000039515431 Rises=F Damp=F
 DIIS: error= 1.80D-05 at cycle  11 NSaved=  11.
 NSaved=11 IEnMin=11 EnMin= -5877.54652076880     IErMin=11 ErrMin= 1.80D-05
 ErrMax= 1.80D-05  0.00D+00 EMaxC= 1.00D-01 BMatC= 3.67D-06 BMatP= 2.36D-05
 IDIUse=1 WtCom= 1.00D+00 WtEn= 0.00D+00
 Coeff-Com: -0.881D-04 0.442D-04-0.850D-05 0.131D-03 0.118D-02 0.468D-02
 Coeff-Com: -0.263D-01-0.737D-01-0.740D-01 0.271D+00 0.897D+00
 Coeff:     -0.881D-04 0.442D-04-0.850D-05 0.131D-03 0.118D-02 0.468D-02
 Coeff:     -0.263D-01-0.737D-01-0.740D-01 0.271D+00 0.897D+00
 Gap=     0.279 Goal=   None    Shift=    0.000
 RMSDP=3.68D-06 MaxDP=1.21D-03 DE=-3.95D-05 OVMax= 1.31D-03

 Cycle  12  Pass 1  IDiag  1:
 RMSU=  1.81D-06    CP:  3.82D-01  1.26D-02  6.74D-01  3.97D-01  8.88D-01
                    CP:  1.03D+00  9.43D-01  1.07D+00  1.23D+00  1.44D+00
                    CP:  1.44D+00
 E= -5877.54652761214     Delta-E=       -0.000006843340 Rises=F Damp=F
 DIIS: error= 6.37D-06 at cycle  12 NSaved=  12.
 NSaved=12 IEnMin=12 EnMin= -5877.54652761214     IErMin=12 ErrMin= 6.37D-06
 ErrMax= 6.37D-06  0.00D+00 EMaxC= 1.00D-01 BMatC= 5.19D-07 BMatP= 3.67D-06
 IDIUse=1 WtCom= 1.00D+00 WtEn= 0.00D+00
 Coeff-Com: -0.101D-04 0.107D-04 0.145D-04-0.103D-03 0.446D-04 0.221D-02
 Coeff-Com: -0.412D-02-0.200D-01-0.618D-01 0.871D-02 0.383D+00 0.692D+00
 Coeff:     -0.101D-04 0.107D-04 0.145D-04-0.103D-03 0.446D-04 0.221D-02
 Coeff:     -0.412D-02-0.200D-01-0.618D-01 0.871D-02 0.383D+00 0.692D+00
 Gap=     0.279 Goal=   None    Shift=    0.000
 RMSDP=9.32D-07 MaxDP=2.01D-04 DE=-6.84D-06 OVMax= 3.97D-04

 Cycle  13  Pass 1  IDiag  1:
 RMSU=  5.45D-07    CP:  3.82D-01  1.27D-02  6.74D-01  3.97D-01  8.88D-01
                    CP:  1.03D+00  9.42D-01  1.07D+00  1.23D+00  1.50D+00
                    CP:  1.54D+00  9.45D-01
 E= -5877.54652829066     Delta-E=       -0.000000678523 Rises=F Damp=F
 DIIS: error= 2.79D-06 at cycle  13 NSaved=  13.
 NSaved=13 IEnMin=13 EnMin= -5877.54652829066     IErMin=13 ErrMin= 2.79D-06
 ErrMax= 2.79D-06  0.00D+00 EMaxC= 1.00D-01 BMatC= 6.43D-08 BMatP= 5.19D-07
 IDIUse=1 WtCom= 1.00D+00 WtEn= 0.00D+00
 Coeff-Com:  0.339D-05 0.214D-05 0.973D-05-0.631D-04-0.162D-03 0.687D-04
 Coeff-Com:  0.118D-02 0.121D-02-0.117D-01-0.233D-01 0.368D-01 0.259D+00
 Coeff-Com:  0.737D+00
 Coeff:      0.339D-05 0.214D-05 0.973D-05-0.631D-04-0.162D-03 0.687D-04
 Coeff:      0.118D-02 0.121D-02-0.117D-01-0.233D-01 0.368D-01 0.259D+00
 Coeff:      0.737D+00
 Gap=     0.279 Goal=   None    Shift=    0.000
 RMSDP=3.28D-07 MaxDP=9.93D-05 DE=-6.79D-07 OVMax= 1.76D-04

 Cycle  14  Pass 1  IDiag  1:
 RMSU=  2.09D-07    CP:  3.82D-01  1.27D-02  6.74D-01  3.97D-01  8.88D-01
                    CP:  1.03D+00  9.42D-01  1.07D+00  1.23D+00  1.51D+00
                    CP:  1.58D+00  1.02D+00  1.14D+00
 E= -5877.54652840073     Delta-E=       -0.000000110067 Rises=F Damp=F
 DIIS: error= 1.00D-06 at cycle  14 NSaved=  14.
 NSaved=14 IEnMin=14 EnMin= -5877.54652840073     IErMin=14 ErrMin= 1.00D-06
 ErrMax= 1.00D-06  0.00D+00 EMaxC= 1.00D-01 BMatC= 1.85D-08 BMatP= 6.43D-08
 IDIUse=1 WtCom= 1.00D+00 WtEn= 0.00D+00
 Coeff-Com:  0.853D-06-0.192D-05 0.702D-05-0.232D-05-0.705D-04-0.584D-03
 Coeff-Com:  0.564D-03 0.330D-02 0.948D-02-0.407D-02-0.617D-01-0.446D-01
 Coeff-Com:  0.241D+00 0.857D+00
 Coeff:      0.853D-06-0.192D-05 0.702D-05-0.232D-05-0.705D-04-0.584D-03
 Coeff:      0.564D-03 0.330D-02 0.948D-02-0.407D-02-0.617D-01-0.446D-01
 Coeff:      0.241D+00 0.857D+00
 Gap=     0.279 Goal=   None    Shift=    0.000
 RMSDP=1.76D-07 MaxDP=3.35D-05 DE=-1.10D-07 OVMax= 1.27D-04

 Cycle  15  Pass 1  IDiag  1:
 RMSU=  9.88D-08    CP:  3.82D-01  1.27D-02  6.74D-01  3.97D-01  8.88D-01
                    CP:  1.03D+00  9.42D-01  1.07D+00  1.23D+00  1.51D+00
                    CP:  1.59D+00  1.04D+00  1.33D+00  1.30D+00
 E= -5877.54652843954     Delta-E=       -0.000000038810 Rises=F Damp=F
 DIIS: error= 7.29D-07 at cycle  15 NSaved=  15.
 NSaved=15 IEnMin=15 EnMin= -5877.54652843954     IErMin=15 ErrMin= 7.29D-07
 ErrMax= 7.29D-07  0.00D+00 EMaxC= 1.00D-01 BMatC= 3.48D-09 BMatP= 1.85D-08
 IDIUse=1 WtCom= 1.00D+00 WtEn= 0.00D+00
 Coeff-Com:  0.700D-06-0.138D-05 0.100D-05 0.135D-04-0.354D-05-0.331D-03
 Coeff-Com: -0.110D-03 0.100D-02 0.748D-02 0.457D-02-0.380D-01-0.796D-01
 Coeff-Com: -0.780D-01 0.344D+00 0.839D+00
 Coeff:      0.700D-06-0.138D-05 0.100D-05 0.135D-04-0.354D-05-0.331D-03
 Coeff:     -0.110D-03 0.100D-02 0.748D-02 0.457D-02-0.380D-01-0.796D-01
 Coeff:     -0.780D-01 0.344D+00 0.839D+00
 Gap=     0.279 Goal=   None    Shift=    0.000
 RMSDP=9.20D-08 MaxDP=1.66D-05 DE=-3.88D-08 OVMax= 7.96D-05

 Cycle  16  Pass 1  IDiag  1:
 RMSU=  4.70D-08    CP:  3.82D-01  1.27D-02  6.74D-01  3.97D-01  8.88D-01
                    CP:  1.03D+00  9.42D-01  1.07D+00  1.23D+00  1.51D+00
                    CP:  1.59D+00  1.06D+00  1.41D+00  1.54D+00  1.27D+00
 E= -5877.54652844793     Delta-E=       -0.000000008396 Rises=F Damp=F
 DIIS: error= 2.60D-07 at cycle  16 NSaved=  16.
 NSaved=16 IEnMin=16 EnMin= -5877.54652844793     IErMin=16 ErrMin= 2.60D-07
 ErrMax= 2.60D-07  0.00D+00 EMaxC= 1.00D-01 BMatC= 5.73D-10 BMatP= 3.48D-09
 IDIUse=1 WtCom= 1.00D+00 WtEn= 0.00D+00
 Coeff-Com:  0.129D-05-0.143D-05-0.871D-06 0.760D-05 0.876D-05-0.342D-04
 Coeff-Com: -0.971D-04-0.113D-03 0.121D-02 0.158D-02-0.577D-02-0.214D-01
 Coeff-Com: -0.636D-01 0.627D-02 0.329D+00 0.753D+00
 Coeff:      0.129D-05-0.143D-05-0.871D-06 0.760D-05 0.876D-05-0.342D-04
 Coeff:     -0.971D-04-0.113D-03 0.121D-02 0.158D-02-0.577D-02-0.214D-01
 Coeff:     -0.636D-01 0.627D-02 0.329D+00 0.753D+00
 Gap=     0.279 Goal=   None    Shift=    0.000
 RMSDP=4.30D-08 MaxDP=7.32D-06 DE=-8.40D-09 OVMax= 2.79D-05

 Cycle  17  Pass 1  IDiag  1:
 RMSU=  2.39D-08    CP:  3.82D-01  1.27D-02  6.74D-01  3.97D-01  8.88D-01
                    CP:  1.03D+00  9.42D-01  1.07D+00  1.23D+00  1.51D+00
                    CP:  1.59D+00  1.06D+00  1.43D+00  1.60D+00  1.44D+00
                    CP:  1.33D+00
 E= -5877.54652845075     Delta-E=       -0.000000002816 Rises=F Damp=F
 DIIS: error= 1.39D-07 at cycle  17 NSaved=  17.
 NSaved=17 IEnMin=17 EnMin= -5877.54652845075     IErMin=17 ErrMin= 1.39D-07
 ErrMax= 1.39D-07  0.00D+00 EMaxC= 1.00D-01 BMatC= 1.18D-10 BMatP= 5.73D-10
 IDIUse=1 WtCom= 1.00D+00 WtEn= 0.00D+00
 Coeff-Com:  0.195D-06-0.909D-07-0.618D-06 0.989D-06 0.576D-05 0.564D-04
 Coeff-Com:  0.157D-05-0.185D-03-0.861D-03-0.437D-03 0.444D-02 0.582D-02
 Coeff-Com: -0.875D-02-0.527D-01-0.450D-01 0.226D+00 0.872D+00
 Coeff:      0.195D-06-0.909D-07-0.618D-06 0.989D-06 0.576D-05 0.564D-04
 Coeff:      0.157D-05-0.185D-03-0.861D-03-0.437D-03 0.444D-02 0.582D-02
 Coeff:     -0.875D-02-0.527D-01-0.450D-01 0.226D+00 0.872D+00
 Gap=     0.279 Goal=   None    Shift=    0.000
 RMSDP=3.85D-08 MaxDP=4.06D-06 DE=-2.82D-09 OVMax= 1.28D-05

 Cycle  18  Pass 1  IDiag  1:
 RMSU=  2.57D-08    CP:  3.82D-01  1.27D-02  6.74D-01  3.97D-01  8.88D-01
                    CP:  1.03D+00  9.42D-01  1.07D+00  1.23D+00  1.51D+00
                    CP:  1.59D+00  1.06D+00  1.42D+00  1.62D+00  1.52D+00
                    CP:  1.72D+00  1.77D+00
 E= -5877.54652845107     Delta-E=       -0.000000000324 Rises=F Damp=F
 DIIS: error= 6.84D-08 at cycle  18 NSaved=  18.
 NSaved=18 IEnMin=18 EnMin= -5877.54652845107     IErMin=18 ErrMin= 6.84D-08
 ErrMax= 6.84D-08  0.00D+00 EMaxC= 1.00D-01 BMatC= 3.57D-11 BMatP= 1.18D-10
 IDIUse=1 WtCom= 1.00D+00 WtEn= 0.00D+00
 Coeff-Com: -0.111D-06 0.101D-06-0.129D-06-0.737D-06 0.168D-05 0.318D-04
 Coeff-Com:  0.407D-04-0.180D-05-0.540D-03-0.704D-03 0.246D-02 0.593D-02
 Coeff-Com:  0.110D-01-0.148D-01-0.801D-01-0.902D-01 0.323D+00 0.844D+00
 Coeff:     -0.111D-06 0.101D-06-0.129D-06-0.737D-06 0.168D-05 0.318D-04
 Coeff:      0.407D-04-0.180D-05-0.540D-03-0.704D-03 0.246D-02 0.593D-02
 Coeff:      0.110D-01-0.148D-01-0.801D-01-0.902D-01 0.323D+00 0.844D+00
 Gap=     0.279 Goal=   None    Shift=    0.000
 RMSDP=5.30D-08 MaxDP=6.34D-06 DE=-3.24D-10 OVMax= 5.01D-06

 Cycle  19  Pass 1  IDiag  1:
 RMSU=  2.51D-08    CP:  3.82D-01  1.27D-02  6.74D-01  3.97D-01  8.88D-01
                    CP:  1.03D+00  9.42D-01  1.07D+00  1.23D+00  1.51D+00
                    CP:  1.59D+00  1.06D+00  1.42D+00  1.63D+00  1.57D+00
                    CP:  2.04D+00  2.96D+00  2.26D+00
 E= -5877.54652845042     Delta-E=        0.000000000655 Rises=F Damp=F
 DIIS: error= 1.16D-07 at cycle  19 NSaved=  19.
 NSaved=19 IEnMin=18 EnMin= -5877.54652845107     IErMin=18 ErrMin= 6.84D-08
 ErrMax= 1.16D-07  0.00D+00 EMaxC= 1.00D-01 BMatC= 7.41D-12 BMatP= 3.57D-11
 IDIUse=1 WtCom= 1.00D+00 WtEn= 0.00D+00
 Coeff-Com: -0.964D-07 0.904D-07-0.193D-07-0.590D-06 0.316D-06 0.901D-05
 Coeff-Com:  0.235D-04 0.314D-04-0.133D-03-0.308D-03 0.555D-03 0.205D-02
 Coeff-Com:  0.662D-02-0.485D-03-0.326D-01-0.772D-01 0.418D-01 0.430D+00
 Coeff-Com:  0.630D+00
 Coeff:     -0.964D-07 0.904D-07-0.193D-07-0.590D-06 0.316D-06 0.901D-05
 Coeff:      0.235D-04 0.314D-04-0.133D-03-0.308D-03 0.555D-03 0.205D-02
 Coeff:      0.662D-02-0.485D-03-0.326D-01-0.772D-01 0.418D-01 0.430D+00
 Coeff:      0.630D+00
 Gap=     0.279 Goal=   None    Shift=    0.000
 RMSDP=6.04D-08 MaxDP=7.58D-06 DE= 6.55D-10 OVMax= 1.31D-06

 Cycle  20  Pass 1  IDiag  1:
 RMSU=  3.69D-08    CP:  3.82D-01  1.27D-02  6.74D-01  3.97D-01  8.88D-01
                    CP:  1.03D+00  9.42D-01  1.07D+00  1.23D+00  1.51D+00
                    CP:  1.59D+00  1.06D+00  1.42D+00  1.63D+00  1.60D+00
                    CP:  2.28D+00  3.00D+00  3.00D+00  2.20D+00
 E= -5877.54652845053     Delta-E=       -0.000000000113 Rises=F Damp=F
 DIIS: error= 1.36D-07 at cycle  20 NSaved=  20.
 NSaved=20 IEnMin=18 EnMin= -5877.54652845107     IErMin=18 ErrMin= 6.84D-08
 ErrMax= 1.36D-07  0.00D+00 EMaxC= 1.00D-01 BMatC= 4.16D-12 BMatP= 7.41D-12
 IDIUse=1 WtCom= 1.00D+00 WtEn= 0.00D+00
 Coeff-Com: -0.688D-07 0.695D-07-0.206D-07-0.424D-06 0.290D-06 0.649D-05
 Coeff-Com:  0.159D-04 0.191D-04-0.956D-04-0.208D-03 0.412D-03 0.143D-02
 Coeff-Com:  0.437D-02-0.105D-02-0.222D-01-0.500D-01 0.337D-01 0.287D+00
 Coeff-Com:  0.401D+00 0.346D+00
 Coeff:     -0.688D-07 0.695D-07-0.206D-07-0.424D-06 0.290D-06 0.649D-05
 Coeff:      0.159D-04 0.191D-04-0.956D-04-0.208D-03 0.412D-03 0.143D-02
 Coeff:      0.437D-02-0.105D-02-0.222D-01-0.500D-01 0.337D-01 0.287D+00
 Coeff:      0.401D+00 0.346D+00
 Gap=     0.279 Goal=   None    Shift=    0.000
 RMSDP=3.00D-08 MaxDP=3.31D-06 DE=-1.13D-10 OVMax= 1.39D-07

 Cycle  21  Pass 1  IDiag  1:
 Restarting incremental Fock formation.
 E= -5877.54652844873     Delta-E=        0.000000001797 Rises=F Damp=F
 DIIS: error= 2.91D-07 at cycle  21 NSaved=  20.
 NSaved=20 IEnMin=17 EnMin= -5877.54652845107     IErMin=17 ErrMin= 6.84D-08
 ErrMax= 2.91D-07  0.00D+00 EMaxC= 1.00D-01 BMatC= 1.10D-10 BMatP= 4.16D-12
 IDIUse=1 WtCom= 1.00D+00 WtEn= 0.00D+00
 Coeff-Com: -0.667D-07 0.699D-07-0.399D-06 0.243D-06 0.508D-05 0.139D-04
 Coeff-Com:  0.186D-04-0.731D-04-0.177D-03 0.305D-03 0.118D-02 0.392D-02
 Coeff-Com: -0.361D-03-0.188D-01-0.460D-01 0.196D-01 0.245D+00 0.367D+00
 Coeff-Com:  0.352D+00 0.754D-01
 Coeff:     -0.667D-07 0.699D-07-0.399D-06 0.243D-06 0.508D-05 0.139D-04
 Coeff:      0.186D-04-0.731D-04-0.177D-03 0.305D-03 0.118D-02 0.392D-02
 Coeff:     -0.361D-03-0.188D-01-0.460D-01 0.196D-01 0.245D+00 0.367D+00
 Coeff:      0.352D+00 0.754D-01
 Gap=     0.279 Goal=   None    Shift=    0.000
 RMSDP=2.81D-08 MaxDP=1.88D-06 DE= 1.80D-09 OVMax= 1.09D-07

 Cycle  22  Pass 1  IDiag  1:
 RMSU=  2.81D-08    CP:  1.00D+00
 E= -5877.54652844747     Delta-E=        0.000000001266 Rises=F Damp=F
 DIIS: error= 2.96D-07 at cycle  22 NSaved=  20.
 NSaved=20 IEnMin=16 EnMin= -5877.54652845107     IErMin=16 ErrMin= 6.84D-08
 ErrMax= 2.96D-07  0.00D+00 EMaxC= 1.00D-01 BMatC= 9.75D-11 BMatP= 4.16D-12
 IDIUse=1 WtCom= 1.00D+00 WtEn= 0.00D+00
 Coeff-Com: -0.370D-07-0.264D-06 0.244D-06 0.315D-05 0.851D-05 0.110D-04
 Coeff-Com: -0.438D-04-0.109D-03 0.181D-03 0.757D-03 0.266D-02-0.212D-03
 Coeff-Com: -0.124D-01-0.325D-01 0.716D-02 0.174D+00 0.304D+00 0.401D+00
 Coeff-Com: -0.133D+01 0.149D+01
 Coeff:     -0.370D-07-0.264D-06 0.244D-06 0.315D-05 0.851D-05 0.110D-04
 Coeff:     -0.438D-04-0.109D-03 0.181D-03 0.757D-03 0.266D-02-0.212D-03
 Coeff:     -0.124D-01-0.325D-01 0.716D-02 0.174D+00 0.304D+00 0.401D+00
 Coeff:     -0.133D+01 0.149D+01
 Gap=     0.279 Goal=   None    Shift=    0.000
 RMSDP=4.88D-08 MaxDP=4.62D-06 DE= 1.27D-09 OVMax= 1.75D-07

 Cycle  23  Pass 1  IDiag  1:
 RMSU=  3.24D-08    CP:  1.00D+00  2.30D+00
 E= -5877.54652845006     Delta-E=       -0.000000002594 Rises=F Damp=F
 DIIS: error= 2.95D-07 at cycle  23 NSaved=  20.
 NSaved=20 IEnMin=15 EnMin= -5877.54652845107     IErMin=15 ErrMin= 6.84D-08
 ErrMax= 2.95D-07  0.00D+00 EMaxC= 1.00D-01 BMatC= 8.57D-11 BMatP= 4.16D-12
 IDIUse=1 WtCom= 1.00D+00 WtEn= 0.00D+00
 Coeff-Com: -0.188D-06 0.345D-07 0.190D-05 0.657D-05 0.892D-05-0.301D-04
 Coeff-Com: -0.774D-04 0.123D-03 0.551D-03 0.187D-02-0.301D-03-0.850D-02
 Coeff-Com: -0.224D-01 0.276D-02 0.122D+00 0.235D+00 0.469D+00-0.113D+01
 Coeff-Com:  0.353D+00 0.974D+00
 Coeff:     -0.188D-06 0.345D-07 0.190D-05 0.657D-05 0.892D-05-0.301D-04
 Coeff:     -0.774D-04 0.123D-03 0.551D-03 0.187D-02-0.301D-03-0.850D-02
 Coeff:     -0.224D-01 0.276D-02 0.122D+00 0.235D+00 0.469D+00-0.113D+01
 Coeff:      0.353D+00 0.974D+00
 Gap=     0.279 Goal=   None    Shift=    0.000
 RMSDP=4.64D-08 MaxDP=4.94D-06 DE=-2.59D-09 OVMax= 1.10D-07

 Cycle  24  Pass 1  IDiag  1:
 RMSU=  2.63D-08    CP:  1.00D+00  3.00D+00  1.77D+00
 E= -5877.54652844915     Delta-E=        0.000000000909 Rises=F Damp=F
 DIIS: error= 2.97D-07 at cycle  24 NSaved=  20.
 NSaved=20 IEnMin=14 EnMin= -5877.54652845107     IErMin=14 ErrMin= 6.84D-08
 ErrMax= 2.97D-07  0.00D+00 EMaxC= 1.00D-01 BMatC= 7.86D-11 BMatP= 4.16D-12
 IDIUse=1 WtCom= 1.00D+00 WtEn= 0.00D+00
 Coeff-Com:  0.167D-06 0.394D-06 0.172D-05 0.404D-05-0.199D-05-0.236D-04
 Coeff-Com:  0.303D-04 0.196D-03 0.102D-02 0.106D-04-0.489D-02-0.156D-01
 Coeff-Com: -0.267D-03 0.920D-01 0.194D+00 0.520D+00-0.901D+00 0.116D+00
 Coeff-Com:  0.319D+00 0.681D+00
 Coeff:      0.167D-06 0.394D-06 0.172D-05 0.404D-05-0.199D-05-0.236D-04
 Coeff:      0.303D-04 0.196D-03 0.102D-02 0.106D-04-0.489D-02-0.156D-01
 Coeff:     -0.267D-03 0.920D-01 0.194D+00 0.520D+00-0.901D+00 0.116D+00
 Coeff:      0.319D+00 0.681D+00
 Gap=     0.279 Goal=   None    Shift=    0.000
 RMSDP=2.88D-08 MaxDP=2.87D-06 DE= 9.09D-10 OVMax= 4.54D-08

 Cycle  25  Pass 1  IDiag  1:
 RMSU=  1.76D-08    CP:  1.00D+00  3.00D+00  2.28D+00  1.59D+00
 E= -5877.54652844753     Delta-E=        0.000000001623 Rises=F Damp=F
 DIIS: error= 3.04D-07 at cycle  25 NSaved=  20.
 NSaved=20 IEnMin=13 EnMin= -5877.54652845107     IErMin=13 ErrMin= 6.84D-08
 ErrMax= 3.04D-07  0.00D+00 EMaxC= 1.00D-01 BMatC= 7.72D-11 BMatP= 4.16D-12
 IDIUse=1 WtCom= 1.00D+00 WtEn= 0.00D+00
 Coeff-Com: -0.289D-06 0.238D-05 0.753D-05 0.511D-05-0.306D-04-0.202D-04
 Coeff-Com:  0.153D-03 0.111D-02 0.422D-03-0.451D-02-0.161D-01-0.323D-02
 Coeff-Com:  0.888D-01 0.193D+00 0.526D+00-0.940D+00 0.224D+00 0.253D+00
 Coeff-Com:  0.437D+00 0.240D+00
 Coeff:     -0.289D-06 0.238D-05 0.753D-05 0.511D-05-0.306D-04-0.202D-04
 Coeff:      0.153D-03 0.111D-02 0.422D-03-0.451D-02-0.161D-01-0.323D-02
 Coeff:      0.888D-01 0.193D+00 0.526D+00-0.940D+00 0.224D+00 0.253D+00
 Coeff:      0.437D+00 0.240D+00
 Gap=     0.279 Goal=   None    Shift=    0.000
 RMSDP=7.51D-09 MaxDP=7.46D-07 DE= 1.62D-09 OVMax= 1.15D-08

 Cycle  26  Pass 1  IDiag  1:
 RMSU=  5.70D-09    CP:  1.00D+00  3.00D+00  2.31D+00  1.71D+00  1.21D+00
 E= -5877.54652844845     Delta-E=       -0.000000000920 Rises=F Damp=F
 DIIS: error= 3.06D-07 at cycle  26 NSaved=  20.
 NSaved=20 IEnMin=12 EnMin= -5877.54652845107     IErMin=12 ErrMin= 6.84D-08
 ErrMax= 3.06D-07  0.00D+00 EMaxC= 1.00D-01 BMatC= 7.79D-11 BMatP= 4.16D-12
 IDIUse=1 WtCom= 1.00D+00 WtEn= 0.00D+00
 Coeff-Com:  0.223D-05 0.608D-05-0.217D-05-0.343D-04 0.168D-04 0.222D-03
 Coeff-Com:  0.116D-02 0.178D-03-0.505D-02-0.161D-01-0.120D-02 0.907D-01
 Coeff-Com:  0.192D+00 0.523D+00-0.941D+00 0.228D+00 0.238D+00 0.441D+00
 Coeff-Com:  0.376D+00-0.126D+00
 Coeff:      0.223D-05 0.608D-05-0.217D-05-0.343D-04 0.168D-04 0.222D-03
 Coeff:      0.116D-02 0.178D-03-0.505D-02-0.161D-01-0.120D-02 0.907D-01
 Coeff:      0.192D+00 0.523D+00-0.941D+00 0.228D+00 0.238D+00 0.441D+00
 Coeff:      0.376D+00-0.126D+00
 Gap=     0.279 Goal=   None    Shift=    0.000
 RMSDP=2.81D-09 MaxDP=2.77D-07 DE=-9.20D-10 OVMax= 4.90D-09

 Error on total polarization charges =  0.02583
 SCF Done:  E(RwB97XD) =  -5877.54652845     A.U. after   26 cycles
            NFock= 26  Conv=0.28D-08     -V/T= 2.0171
 KE= 5.778476705926D+03 PE=-4.729300812886D+04 EE= 1.892362392117D+04
 SMD-CDS (non-electrostatic) energy       (kcal/mol) =      -0.56
 (included in total energy above)
 Leave Link  502 at Mon Nov 27 19:22:21 2023, MaxMem=  2147483648 cpu:    193879.3
 (Enter /cluster/apps/gaussian/g09/l601.exe)
 Copying SCF densities to generalized density rwf, IOpCl= 0 IROHF=0.

 **********************************************************************

            Population analysis using the SCF density.

 **********************************************************************

 Orbital symmetries:
       Occupied  (A) (A) (A) (A) (A) (A) (A) (A) (A) (A) (A) (A)
                 (A) (A) (A) (A) (A) (A) (A) (A) (A) (A) (A) (A)
                 (A) (A) (A) (A) (A) (A) (A) (A) (A) (A) (A) (A)
                 (A) (A) (A) (A) (A) (A) (A) (A) (A) (A) (A) (A)
                 (A) (A) (A) (A) (A) (A) (A) (A) (A) (A) (A) (A)
                 (A) (A) (A) (A) (A) (A) (A) (A) (A) (A) (A) (A)
                 (A) (A) (A) (A) (A) (A) (A) (A) (A) (A) (A) (A)
                 (A) (A) (A) (A) (A) (A) (A) (A) (A) (A) (A) (A)
                 (A) (A) (A) (A) (A) (A) (A) (A) (A) (A) (A) (A)
                 (A) (A) (A) (A) (A) (A) (A) (A) (A) (A) (A) (A)
                 (A) (A) (A) (A) (A) (A) (A) (A) (A) (A) (A) (A)
                 (A) (A) (A) (A) (A) (A) (A) (A) (A) (A) (A) (A)
                 (A) (A) (A) (A) (A) (A) (A) (A) (A) (A) (A) (A)
                 (A) (A) (A) (A) (A) (A) (A) (A) (A) (A) (A) (A)
                 (A) (A) (A) (A) (A) (A) (A) (A) (A) (A) (A) (A)
                 (A) (A) (A) (A) (A) (A) (A) (A) (A) (A) (A) (A)
                 (A) (A) (A) (A) (A) (A) (A) (A) (A) (A) (A) (A)
                 (A) (A) (A) (A) (A) (A) (A) (A) (A) (A) (A) (A)
                 (A) (A) (A) (A) (A) (A) (A) (A) (A) (A) (A) (A)
                 (A) (A) (A) (A) (A) (A) (A) (A) (A) (A) (A) (A)
                 (A) (A) (A) (A) (A) (A) (A) (A) (A) (A) (A) (A)
                 (A) (A) (A) (A) (A) (A) (A) (A) (A) (A) (A) (A)
                 (A) (A) (A) (A) (A) (A) (A) (A) (A) (A) (A) (A)
                 (A) (A) (A) (A) (A) (A) (A) (A) (A) (A) (A) (A)
                 (A) (A)
       Virtual   (A) (A) (A) (A) (A) (A) (A) (A) (A) (A) (A) (A)
                 (A) (A) (A) (A) (A) (A) (A) (A) (A) (A) (A) (A)
                 (A) (A) (A) (A) (A) (A) (A) (A) (A) (A) (A) (A)
                 (A) (A) (A) (A) (A) (A) (A) (A) (A) (A) (A) (A)
                 (A) (A) (A) (A) (A) (A) (A) (A) (A) (A) (A) (A)
                 (A) (A) (A) (A) (A) (A) (A) (A) (A) (A) (A) (A)
                 (A) (A) (A) (A) (A) (A) (A) (A) (A) (A) (A) (A)
                 (A) (A) (A) (A) (A) (A) (A) (A) (A) (A) (A) (A)
                 (A) (A) (A) (A) (A) (A) (A) (A) (A) (A) (A) (A)
                 (A) (A) (A) (A) (A) (A) (A) (A) (A) (A) (A) (A)
                 (A) (A) (A) (A) (A) (A) (A) (A) (A) (A) (A) (A)
                 (A) (A) (A) (A) (A) (A) (A) (A) (A) (A) (A) (A)
                 (A) (A) (A) (A) (A) (A) (A) (A) (A) (A) (A) (A)
                 (A) (A) (A) (A) (A) (A) (A) (A) (A) (A) (A) (A)
                 (A) (A) (A) (A) (A) (A) (A) (A) (A) (A) (A) (A)
                 (A) (A) (A) (A) (A) (A) (A) (A) (A) (A) (A) (A)
                 (A) (A) (A) (A) (A) (A) (A) (A) (A) (A) (A) (A)
                 (A) (A) (A) (A) (A) (A) (A) (A) (A) (A) (A) (A)
                 (A) (A) (A) (A) (A) (A) (A) (A) (A) (A) (A) (A)
                 (A) (A) (A) (A) (A) (A) (A) (A) (A) (A) (A) (A)
                 (A) (A) (A) (A) (A) (A) (A) (A) (A) (A) (A) (A)
                 (A) (A) (A) (A) (A) (A) (A) (A) (A) (A) (A) (A)
                 (A) (A) (A) (A) (A) (A) (A) (A) (A) (A) (A) (A)
                 (A) (A) (A) (A) (A) (A) (A) (A) (A) (A) (A) (A)
                 (A) (A) (A) (A) (A) (A) (A) (A) (A) (A) (A) (A)
                 (A) (A) (A) (A) (A) (A) (A) (A) (A) (A) (A) (A)
                 (A) (A) (A) (A) (A) (A) (A) (A) (A) (A) (A) (A)
                 (A) (A) (A) (A) (A) (A) (A) (A) (A) (A) (A) (A)
                 (A) (A) (A) (A) (A) (A) (A) (A) (A) (A) (A) (A)
                 (A) (A) (A) (A) (A) (A) (A) (A) (A) (A) (A) (A)
                 (A) (A) (A) (A) (A) (A) (A) (A) (A) (A) (A) (A)
                 (A) (A) (A) (A) (A) (A) (A) (A) (A) (A) (A) (A)
                 (A) (A) (A) (A) (A) (A) (A) (A) (A) (A) (A) (A)
                 (A) (A) (A) (A) (A) (A) (A) (A) (A) (A) (A) (A)
                 (A) (A) (A) (A) (A) (A) (A) (A) (A) (A) (A) (A)
                 (A) (A) (A) (A) (A) (A) (A) (A) (A) (A) (A) (A)
                 (A) (A) (A) (A) (A) (A) (A) (A) (A) (A) (A) (A)
                 (A) (A) (A) (A) (A) (A) (A) (A) (A) (A) (A) (A)
                 (A) (A) (A) (A) (A) (A) (A) (A) (A) (A) (A) (A)
                 (A) (A) (A) (A) (A) (A) (A) (A) (A) (A) (A) (A)
                 (A) (A) (A) (A) (A) (A) (A) (A) (A) (A) (A) (A)
                 (A) (A) (A) (A) (A) (A) (A) (A) (A) (A) (A) (A)
                 (A) (A) (A) (A) (A) (A) (A) (A) (A) (A) (A) (A)
                 (A) (A) (A) (A) (A) (A) (A) (A) (A) (A) (A) (A)
                 (A) (A) (A) (A) (A) (A) (A) (A) (A) (A) (A) (A)
                 (A) (A) (A) (A) (A) (A) (A) (A) (A) (A) (A) (A)
                 (A) (A) (A) (A) (A) (A) (A) (A) (A) (A) (A) (A)
                 (A) (A) (A) (A) (A) (A) (A) (A) (A) (A) (A) (A)
                 (A) (A) (A) (A) (A) (A) (A) (A) (A) (A) (A) (A)
                 (A) (A) (A) (A) (A) (A) (A) (A) (A) (A) (A) (A)
                 (A) (A) (A) (A) (A) (A) (A) (A) (A) (A) (A) (A)
                 (A) (A) (A) (A) (A) (A) (A) (A) (A) (A) (A) (A)
                 (A) (A) (A) (A) (A) (A) (A) (A) (A) (A) (A) (A)
                 (A) (A) (A) (A) (A) (A) (A) (A) (A) (A) (A) (A)
                 (A) (A) (A) (A) (A) (A) (A) (A) (A) (A) (A) (A)
                 (A) (A) (A) (A) (A) (A) (A) (A) (A) (A) (A) (A)
                 (A) (A) (A) (A) (A) (A) (A) (A) (A) (A) (A) (A)
                 (A) (A) (A) (A) (A) (A) (A) (A) (A) (A) (A) (A)
                 (A) (A) (A) (A) (A) (A) (A) (A) (A) (A) (A) (A)
                 (A) (A) (A) (A) (A) (A) (A) (A) (A) (A) (A) (A)
                 (A) (A) (A) (A) (A) (A) (A) (A) (A) (A) (A) (A)
                 (A) (A) (A) (A) (A) (A) (A) (A) (A) (A) (A) (A)
                 (A) (A) (A) (A) (A) (A) (A) (A) (A) (A) (A) (A)
                 (A) (A) (A) (A) (A) (A) (A) (A) (A) (A) (A) (A)
                 (A) (A) (A) (A) (A) (A) (A) (A) (A) (A) (A) (A)
                 (A) (A) (A) (A) (A) (A) (A) (A) (A) (A) (A) (A)
                 (A) (A) (A) (A) (A) (A) (A) (A) (A) (A) (A) (A)
                 (A) (A) (A) (A) (A) (A) (A) (A) (A) (A) (A) (A)
                 (A) (A) (A) (A) (A) (A) (A) (A) (A) (A) (A) (A)
                 (A) (A) (A) (A) (A) (A) (A) (A) (A) (A) (A) (A)
                 (A) (A) (A) (A) (A) (A) (A) (A) (A) (A) (A) (A)
                 (A) (A) (A) (A) (A) (A) (A) (A) (A) (A) (A) (A)
                 (A) (A) (A) (A) (A) (A) (A) (A) (A) (A) (A) (A)
                 (A) (A) (A) (A) (A) (A) (A) (A) (A) (A) (A) (A)
                 (A) (A) (A) (A) (A) (A) (A) (A) (A) (A) (A) (A)
                 (A) (A) (A) (A) (A) (A) (A) (A) (A) (A) (A) (A)
                 (A) (A) (A) (A) (A) (A) (A) (A) (A) (A) (A) (A)
                 (A) (A) (A) (A) (A) (A) (A) (A) (A) (A) (A) (A)
                 (A) (A) (A) (A) (A) (A) (A) (A) (A) (A) (A) (A)
                 (A) (A) (A) (A) (A) (A) (A) (A) (A) (A) (A) (A)
                 (A) (A) (A) (A) (A) (A) (A) (A) (A) (A) (A) (A)
                 (A) (A) (A) (A) (A) (A) (A) (A) (A) (A) (A) (A)
                 (A) (A) (A) (A) (A) (A) (A) (A) (A) (A) (A) (A)
                 (A) (A) (A) (A) (A) (A) (A) (A) (A) (A) (A) (A)
                 (A) (A) (A) (A) (A) (A) (A) (A) (A) (A) (A) (A)
                 (A) (A) (A) (A) (A) (A) (A) (A) (A) (A) (A) (A)
                 (A) (A) (A) (A) (A) (A) (A) (A) (A) (A) (A) (A)
                 (A) (A) (A) (A) (A) (A) (A) (A) (A) (A) (A) (A)
                 (A) (A) (A) (A) (A) (A) (A) (A) (A) (A) (A) (A)
                 (A) (A) (A) (A) (A) (A) (A) (A) (A) (A) (A) (A)
                 (A) (A) (A) (A) (A) (A) (A) (A) (A) (A) (A) (A)
                 (A) (A) (A) (A) (A) (A) (A) (A) (A) (A) (A) (A)
                 (A) (A) (A) (A) (A) (A) (A) (A) (A) (A) (A) (A)
                 (A) (A) (A) (A) (A) (A) (A) (A) (A) (A) (A) (A)
                 (A) (A) (A) (A) (A) (A) (A) (A) (A) (A) (A) (A)
                 (A) (A) (A) (A) (A) (A) (A) (A) (A) (A) (A) (A)
                 (A) (A) (A) (A) (A) (A) (A) (A) (A) (A) (A) (A)
                 (A) (A) (A) (A) (A) (A) (A) (A) (A) (A) (A) (A)
                 (A) (A) (A) (A) (A) (A) (A) (A) (A) (A) (A) (A)
                 (A) (A) (A) (A) (A) (A) (A) (A) (A) (A) (A) (A)
                 (A) (A) (A) (A) (A) (A) (A) (A) (A) (A) (A) (A)
                 (A) (A) (A) (A) (A) (A) (A) (A) (A) (A) (A) (A)
                 (A) (A) (A) (A) (A) (A) (A) (A) (A) (A) (A) (A)
                 (A) (A) (A) (A) (A) (A) (A) (A) (A) (A) (A) (A)
                 (A) (A) (A) (A) (A) (A) (A) (A) (A) (A) (A) (A)
                 (A) (A) (A) (A) (A) (A) (A) (A) (A) (A) (A) (A)
                 (A) (A) (A) (A) (A) (A) (A) (A) (A) (A) (A) (A)
                 (A) (A) (A) (A) (A) (A) (A) (A) (A) (A) (A) (A)
                 (A) (A) (A) (A) (A) (A) (A) (A) (A) (A) (A) (A)
                 (A) (A) (A) (A) (A) (A) (A) (A) (A) (A) (A) (A)
                 (A) (A) (A) (A) (A) (A) (A) (A) (A) (A) (A) (A)
                 (A) (A) (A) (A) (A) (A) (A) (A) (A) (A) (A) (A)
                 (A) (A) (A) (A) (A) (A) (A) (A) (A) (A) (A) (A)
                 (A) (A) (A) (A) (A) (A) (A) (A) (A) (A) (A) (A)
                 (A) (A) (A) (A) (A) (A) (A) (A) (A) (A) (A) (A)
                 (A) (A) (A) (A) (A) (A) (A) (A) (A) (A) (A) (A)
                 (A) (A) (A) (A) (A) (A) (A) (A) (A) (A) (A) (A)
                 (A) (A) (A) (A) (A) (A) (A) (A) (A) (A) (A) (A)
                 (A) (A) (A) (A) (A) (A) (A) (A) (A) (A) (A) (A)
                 (A) (A) (A) (A) (A) (A) (A) (A) (A) (A) (A) (A)
                 (A) (A) (A) (A) (A) (A) (A) (A) (A) (A) (A) (A)
                 (A) (A) (A) (A) (A) (A) (A) (A) (A) (A) (A) (A)
                 (A) (A) (A) (A) (A) (A) (A) (A) (A) (A) (A) (A)
                 (A) (A) (A) (A) (A) (A) (A) (A) (A) (A) (A) (A)
                 (A) (A) (A) (A) (A) (A) (A) (A) (A) (A) (A) (A)
                 (A) (A) (A) (A) (A) (A) (A) (A) (A) (A) (A) (A)
                 (A) (A) (A) (A) (A) (A) (A) (A) (A) (A) (A) (A)
                 (A) (A) (A) (A) (A) (A) (A) (A) (A) (A) (A) (A)
                 (A) (A) (A) (A) (A) (A) (A) (A) (A) (A) (A) (A)
                 (A) (A) (A) (A) (A) (A) (A) (A) (A) (A) (A) (A)
                 (A) (A) (A) (A) (A) (A) (A) (A) (A) (A) (A) (A)
                 (A) (A) (A) (A) (A) (A) (A) (A) (A) (A) (A) (A)
                 (A) (A) (A) (A) (A) (A) (A) (A) (A) (A) (A) (A)
                 (A) (A) (A) (A) (A) (A) (A) (A) (A) (A) (A) (A)
                 (A) (A) (A) (A) (A) (A) (A) (A) (A) (A) (A) (A)
                 (A) (A) (A) (A) (A) (A) (A) (A) (A) (A) (A) (A)
                 (A) (A) (A) (A) (A) (A) (A) (A) (A) (A) (A) (A)
                 (A) (A) (A) (A) (A) (A) (A) (A) (A) (A) (A) (A)
                 (A) (A) (A) (A) (A) (A) (A) (A) (A) (A) (A) (A)
                 (A) (A) (A) (A) (A) (A) (A) (A) (A) (A) (A) (A)
                 (A) (A) (A) (A) (A) (A) (A) (A) (A) (A) (A) (A)
                 (A) (A) (A) (A) (A) (A) (A) (A) (A) (A) (A) (A)
                 (A) (A) (A) (A) (A) (A) (A) (A) (A) (A) (A) (A)
                 (A) (A) (A) (A) (A) (A) (A) (A) (A) (A) (A) (A)
                 (A) (A) (A) (A) (A) (A) (A) (A) (A) (A) (A) (A)
                 (A) (A) (A) (A) (A) (A) (A) (A) (A) (A) (A) (A)
                 (A) (A) (A) (A) (A) (A) (A) (A) (A) (A) (A) (A)
                 (A) (A) (A) (A) (A) (A) (A) (A) (A) (A) (A) (A)
                 (A) (A) (A) (A) (A) (A) (A) (A) (A) (A) (A) (A)
                 (A) (A) (A) (A) (A) (A) (A) (A) (A) (A) (A) (A)
                 (A) (A) (A) (A) (A) (A) (A) (A) (A) (A) (A) (A)
                 (A) (A) (A) (A) (A) (A) (A) (A) (A) (A) (A) (A)
                 (A) (A) (A) (A) (A) (A) (A) (A) (A) (A) (A) (A)
                 (A) (A) (A) (A) (A) (A) (A) (A) (A) (A) (A) (A)
                 (A) (A) (A) (A) (A) (A) (A) (A) (A) (A) (A) (A)
                 (A) (A) (A) (A) (A) (A) (A) (A) (A) (A) (A) (A)
                 (A) (A) (A) (A) (A) (A) (A) (A) (A) (A) (A) (A)
                 (A) (A) (A) (A) (A) (A) (A) (A) (A) (A) (A) (A)
                 (A) (A) (A) (A) (A) (A) (A) (A) (A) (A) (A) (A)
                 (A) (A) (A) (A) (A) (A) (A) (A) (A) (A) (A) (A)
                 (A) (A) (A) (A) (A) (A) (A) (A) (A) (A) (A) (A)
                 (A) (A) (A) (A) (A) (A) (A) (A) (A) (A) (A) (A)
                 (A) (A) (A) (A) (A) (A) (A) (A) (A) (A) (A) (A)
                 (A) (A) (A) (A) (A) (A) (A) (A) (A) (A) (A) (A)
                 (A) (A) (A) (A) (A) (A) (A) (A) (A) (A) (A) (A)
                 (A) (A) (A) (A) (A) (A) (A) (A) (A) (A) (A) (A)
                 (A) (A) (A) (A) (A) (A) (A) (A) (A) (A) (A) (A)
                 (A) (A) (A) (A) (A) (A) (A) (A) (A) (A) (A) (A)
[...]
 Alpha virt. eigenvalues --    4.18438   4.19108   4.19665   4.19896   4.20102
 Alpha virt. eigenvalues --    4.20432   4.20584   4.20892   4.21271   4.21559
 Alpha virt. eigenvalues --    4.21670   4.21953   4.22105   4.22383   4.22874
 Alpha virt. eigenvalues --    4.23016   4.23193   4.23348   4.23371   4.23607
 Alpha virt. eigenvalues --    4.23893   4.24243   4.24364   4.24395   4.24726
 Alpha virt. eigenvalues --    4.25337   4.25344   4.25849   4.26140   4.26381
 Alpha virt. eigenvalues --    4.26471   4.26738   4.27338   4.27584   4.28124
 Alpha virt. eigenvalues --    4.28570   4.28940   4.29251   4.30097   4.30208
 Alpha virt. eigenvalues --    4.30615   4.31176   4.31445   4.31793   4.32047
 Alpha virt. eigenvalues --    4.32459   4.32502   4.33485   4.33768   4.34102
 Alpha virt. eigenvalues --    4.34155   4.34581   4.34711   4.35620   4.36037
 Alpha virt. eigenvalues --    4.36496   4.36907   4.37175   4.37538   4.38044
 Alpha virt. eigenvalues --    4.38630   4.38828   4.39625   4.40051   4.40488
 Alpha virt. eigenvalues --    4.40734   4.41210   4.41733   4.42788   4.43327
 Alpha virt. eigenvalues --    4.43844   4.44210   4.44396   4.44922   4.45875
 Alpha virt. eigenvalues --    4.46262   4.46684   4.47129   4.47337   4.47482
 Alpha virt. eigenvalues --    4.47826   4.48040   4.48448   4.48930   4.49200
 Alpha virt. eigenvalues --    4.49283   4.49881   4.50184   4.51043   4.51528
 Alpha virt. eigenvalues --    4.51816   4.52016   4.52374   4.53295   4.53498
 Alpha virt. eigenvalues --    4.53715   4.54989   4.56415   4.57423   4.58648
 Alpha virt. eigenvalues --    4.60419   4.61183   4.61367   4.61790   4.62132
 Alpha virt. eigenvalues --    4.63086   4.64046   4.64890   4.66628   4.66793
 Alpha virt. eigenvalues --    4.67277   4.67495   4.67707   4.68254   4.69111
 Alpha virt. eigenvalues --    4.70044   4.71367   4.71529   4.72250   4.74461
 Alpha virt. eigenvalues --    4.76407   4.78549   4.80064   4.80306   4.80796
 Alpha virt. eigenvalues --    4.81662   4.81949   4.82589   4.82860   4.83329
 Alpha virt. eigenvalues --    4.83639   4.85024   4.85323   4.85626   4.86073
 Alpha virt. eigenvalues --    4.86229   4.86375   4.87226   4.90426   4.92594
 Alpha virt. eigenvalues --    4.94504   4.95126   4.95352   4.95551   4.95622
 Alpha virt. eigenvalues --    4.96145   4.96474   4.96908   4.97674   4.98999
 Alpha virt. eigenvalues --    4.99202   4.99845   5.01243   5.01305   5.01497
 Alpha virt. eigenvalues --    5.01934   5.03043   5.03356   5.04377   5.05596
 Alpha virt. eigenvalues --    5.06956   5.08258   5.10461   5.13553   5.14692
 Alpha virt. eigenvalues --    5.15974   5.18519   5.18919   5.19470   5.20169
 Alpha virt. eigenvalues --    5.20737   5.21505   5.25060   5.25679   5.26269
 Alpha virt. eigenvalues --    5.26834   5.27497   5.28843   5.30143   5.32200
 Alpha virt. eigenvalues --    5.33419   5.35805   5.36984   5.38052   5.38329
 Alpha virt. eigenvalues --    5.38944   5.39342   5.40872   5.44418   5.44865
 Alpha virt. eigenvalues --    5.45548   5.46571   5.46925   5.47448   5.47695
 Alpha virt. eigenvalues --    5.48313   5.48372   5.48894   5.49744   5.50178
 Alpha virt. eigenvalues --    5.51859   5.52732   5.53038   5.53628   5.54117
 Alpha virt. eigenvalues --    5.55023   5.57059   5.58603   5.61863   5.62090
 Alpha virt. eigenvalues --    5.63105   5.63620   5.63936   5.65854   5.66938
 Alpha virt. eigenvalues --    5.67932   5.68669   5.69748   5.70841   5.71285
 Alpha virt. eigenvalues --    5.72782   5.73364   5.74103   5.74537   5.74978
 Alpha virt. eigenvalues --    5.79151   5.87546   5.87790   5.89636   5.90050
 Alpha virt. eigenvalues --    5.92290   5.92368   5.93864   6.02284   6.05210
 Alpha virt. eigenvalues --    6.11350   6.16281   6.46169   6.48196   6.52496
 Alpha virt. eigenvalues --    6.55656   6.62304   6.65204   6.74526   6.83732
 Alpha virt. eigenvalues --    6.89570   6.89996   6.91534   6.91539   6.91731
 Alpha virt. eigenvalues --    6.91914   6.91956   6.92075   6.92120   6.92321
 Alpha virt. eigenvalues --    6.92332   6.92378   6.92517   6.92540   6.92670
 Alpha virt. eigenvalues --    6.92739   6.92839   6.92897   6.92970   6.93041
 Alpha virt. eigenvalues --    6.93210   6.93244   6.93265   6.93309   6.93352
 Alpha virt. eigenvalues --    6.93514   6.93655   6.93750   6.93819   6.93842
 Alpha virt. eigenvalues --    6.93946   6.94049   6.94089   6.94147   6.94243
 Alpha virt. eigenvalues --    6.94317   6.94336   6.94403   6.94518   6.94615
 Alpha virt. eigenvalues --    6.94620   6.94686   6.94821   6.94894   6.95015
 Alpha virt. eigenvalues --    6.95149   6.95589   6.95655   6.95938   6.96170
 Alpha virt. eigenvalues --    6.96634   6.96916   6.97957   6.98716   6.98773
 Alpha virt. eigenvalues --    6.98930   6.99216   7.00541   7.01126   7.01336
 Alpha virt. eigenvalues --    7.01493   7.01665   7.02883   7.02968   7.03008
 Alpha virt. eigenvalues --    7.03356   7.03627   7.04644   7.04792   7.05111
 Alpha virt. eigenvalues --    7.05256   7.05433   7.05849   7.08205   7.08533
 Alpha virt. eigenvalues --    7.08634   7.08721   7.08945   7.09579   7.09876
 Alpha virt. eigenvalues --    7.10039   7.10546   7.13841   7.13998   7.14126
 Alpha virt. eigenvalues --    7.14256   7.14387   7.14439   7.14452   7.14583
 Alpha virt. eigenvalues --    7.14635   7.14873   7.14994   7.18220   7.18511
 Alpha virt. eigenvalues --    7.18701   7.18963   7.19145   7.22793   7.22874
 Alpha virt. eigenvalues --    7.22918   7.23454   7.24457   7.25326   7.25505
 Alpha virt. eigenvalues --    7.25884   7.25907   7.27335   7.27772   7.27850
 Alpha virt. eigenvalues --    7.28155   7.28356   7.28485   7.30428   7.31735
 Alpha virt. eigenvalues --    7.32255   7.32655   7.32872   7.35280   7.35484
 Alpha virt. eigenvalues --    7.35570   7.35795   7.36779   7.37133   7.37200
 Alpha virt. eigenvalues --    7.37365   7.37454   7.37545   7.37669   7.37836
 Alpha virt. eigenvalues --    7.37983   7.38852   7.41879   7.43637   7.44082
 Alpha virt. eigenvalues --    7.44275   7.44280   7.47750   7.48457   7.48617
 Alpha virt. eigenvalues --    7.48867   7.49013   7.49597   7.50432   7.50754
 Alpha virt. eigenvalues --    7.50857   7.51011   7.52481   7.53973   7.54435
 Alpha virt. eigenvalues --    7.54484   7.54594   7.56658   7.58401   7.58712
 Alpha virt. eigenvalues --    7.58904   7.59202   7.62348   7.69240   7.69980
 Alpha virt. eigenvalues --    7.70096   7.70562   7.73363   7.73740   7.73933
 Alpha virt. eigenvalues --    7.74288   7.74462   7.75935   7.82329   7.82869
 Alpha virt. eigenvalues --    7.82923   7.83096   7.96859   7.99188   8.04352
 Alpha virt. eigenvalues --    8.06855   8.08142   8.09774   8.11476   8.13323
 Alpha virt. eigenvalues --    8.13537   8.14668   8.15751   8.37268   8.37398
 Alpha virt. eigenvalues --    8.37473   8.38025   8.39504   8.40227   8.40316
 Alpha virt. eigenvalues --    8.40448   8.41057   8.43026   8.43426   8.43801
 Alpha virt. eigenvalues --    8.43958   8.44618   8.45153   8.45355   8.46195
 Alpha virt. eigenvalues --    8.46664   8.47174   8.49465   8.49847   8.50226
 Alpha virt. eigenvalues --    8.50937   8.51169   8.51477   8.52642   8.53288
 Alpha virt. eigenvalues --    8.53981   8.55431   8.61525   8.61690   8.61799
 Alpha virt. eigenvalues --    8.62451   8.64029   8.64309   8.64384   8.65171
 Alpha virt. eigenvalues --    8.65244   8.65443   8.65833   8.66221   8.66406
 Alpha virt. eigenvalues --    8.67547   8.76636   8.76735   8.76804   8.77338
 Alpha virt. eigenvalues --    8.78441   8.79634   8.80027   8.80138   8.80643
 Alpha virt. eigenvalues --    8.80703   8.80838   8.81224   8.81489   8.81848
 Alpha virt. eigenvalues --    8.84303   8.84418   8.85215   8.85301   8.85537
 Alpha virt. eigenvalues --    8.87870   8.88159   8.88473   8.88523   8.88678
 Alpha virt. eigenvalues --    8.88966   8.89454   8.89592   8.89877   8.91051
 Alpha virt. eigenvalues --    8.94085   8.94666   8.94764   8.95100   8.95265
 Alpha virt. eigenvalues --    8.97104   8.97389   8.97577   8.98008   9.00454
 Alpha virt. eigenvalues --    9.00580   9.00758   9.00881   9.01442   9.01570
 Alpha virt. eigenvalues --    9.01939   9.02179   9.02366   9.02785   9.09849
 Alpha virt. eigenvalues --    9.10079   9.10828   9.11123   9.12144   9.12508
 Alpha virt. eigenvalues --    9.14130   9.14264   9.14661   9.15593   9.15802
 Alpha virt. eigenvalues --    9.15970   9.16163   9.16620   9.16930   9.17054
 Alpha virt. eigenvalues --    9.18309   9.18697   9.19049   9.22165   9.24284
 Alpha virt. eigenvalues --    9.25473   9.26721   9.35211   9.41687   9.42251
 Alpha virt. eigenvalues --    9.42899   9.43094   9.43206   9.56362   9.65008
 Alpha virt. eigenvalues --    9.89374  10.93557  10.98475  11.38536  16.16940
 Alpha virt. eigenvalues --   16.23757  22.18957  22.37767  22.39398  22.45880
 Alpha virt. eigenvalues --   22.46790  22.49324  22.50148  22.55343  22.61303
 Alpha virt. eigenvalues --   22.63081  22.68125  22.81701  22.91072  22.96555
 Alpha virt. eigenvalues --   22.97190  22.98358  23.00526  23.01576  23.01702
 Alpha virt. eigenvalues --   23.01952  23.03630  23.04375  23.05734  23.08325
 Alpha virt. eigenvalues --   23.09330  23.11231  23.11523  23.12584  23.14787
 Alpha virt. eigenvalues --   23.14955  23.16675  23.17583  23.18984  23.19228
 Alpha virt. eigenvalues --   23.25205  23.47791  23.69513  23.71048  23.72527
 Alpha virt. eigenvalues --   23.73711  23.81195  25.72721  32.83003  32.95295
 Alpha virt. eigenvalues --   43.92897  44.16206  44.35659  57.24217  57.24596
 Alpha virt. eigenvalues --   57.26328  57.27809  57.31242  57.43599  57.44276
 Alpha virt. eigenvalues --   57.44430  57.46779  57.49594  57.52528  57.53018
 Alpha virt. eigenvalues --   57.53413  57.54128  57.61295  57.66620  57.68374
 Alpha virt. eigenvalues --   57.69875  57.71532  57.73643  57.76112  57.76908
 Alpha virt. eigenvalues --   57.79632  57.81809 107.14454
          Condensed to atoms (all electrons):
 Mulliken charges:
               1
     1  Pd  -0.002827
     2  Cl  -0.108030
     3  S    0.838014
     4  P    0.431076
     5  P    0.652163
     6  F   -0.214782
     7  F   -0.201425
     8  F   -0.198943
     9  F   -0.212166
    10  O   -0.541999
    11  O   -0.518509
    12  O   -0.303332
    13  N   -0.382100
    14  C    0.047827
    15  C   -0.275564
    16  H    0.187593
    17  C   -0.285303
    18  H    0.136770
    19  C    0.397047
    20  C   -0.225963
    21  H    0.156987
    22  H    0.137903
    23  H    0.135278
    24  C   -0.456604
    25  H    0.174424
    26  C    0.044437
    27  C    0.001659
    28  C    0.294460
    29  C    0.142298
    30  C    0.198799
    31  C    0.169600
    32  C   -0.009245
    33  C   -0.176289
    34  H    0.203537
    35  H    0.192957
    36  C   -0.351543
    37  H    0.202623
    38  H    0.192908
    39  C   -0.354221
    40  H    0.204856
    41  H    0.196338
    42  C   -0.279005
    43  C    0.209594
    44  C    0.180398
    45  C    0.215888
    46  C    0.181628
    47  C    0.280725
    48  C   -0.257807
    49  C    0.259541
    50  C    0.186986
    51  C    0.206876
    52  C    0.168130
    53  C    0.225649
    54  C   -0.294749
    55  C    0.280076
    56  C    0.147304
    57  C    0.232851
    58  C    0.146114
    59  C    0.327594
    60  C   -0.243236
    61  C    0.296087
    62  C    0.152037
    63  C    0.224958
    64  C    0.165197
    65  C    0.255639
    66  F   -0.184289
    67  F   -0.200668
    68  F   -0.187614
    69  F   -0.186983
    70  F   -0.178457
    71  F   -0.198481
    72  F   -0.185710
    73  F   -0.176265
    74  F   -0.185477
    75  F   -0.183935
    76  F   -0.212877
    77  F   -0.194659
    78  F   -0.188670
    79  F   -0.180815
    80  F   -0.190879
    81  F   -0.210645
    82  F   -0.184244
    83  F   -0.176965
    84  F   -0.184399
    85  F   -0.197147
 Sum of Mulliken charges =   0.00000
 Mulliken charges with hydrogens summed into heavy atoms:
               1
     1  Pd  -0.002827
     2  Cl  -0.108030
     3  S    0.838014
     4  P    0.431076
     5  P    0.652163
     6  F   -0.214782
     7  F   -0.201425
     8  F   -0.198943
     9  F   -0.212166
    10  O   -0.541999
    11  O   -0.518509
    12  O   -0.303332
    13  N   -0.382100
    14  C    0.047827
    15  C   -0.087971
    17  C   -0.148533
    19  C    0.397047
    20  C    0.204205
    24  C   -0.282181
    26  C    0.044437
    27  C    0.001659
    28  C    0.294460
    29  C    0.142298
    30  C    0.198799
    31  C    0.169600
    32  C   -0.009245
    33  C    0.220204
    36  C    0.043989
    39  C    0.046973
    42  C   -0.279005
    43  C    0.209594
    44  C    0.180398
    45  C    0.215888
    46  C    0.181628
    47  C    0.280725
    48  C   -0.257807
    49  C    0.259541
    50  C    0.186986
    51  C    0.206876
    52  C    0.168130
    53  C    0.225649
    54  C   -0.294749
    55  C    0.280076
    56  C    0.147304
    57  C    0.232851
    58  C    0.146114
    59  C    0.327594
    60  C   -0.243236
    61  C    0.296087
    62  C    0.152037
    63  C    0.224958
    64  C    0.165197
    65  C    0.255639
    66  F   -0.184289
    67  F   -0.200668
    68  F   -0.187614
    69  F   -0.186983
    70  F   -0.178457
    71  F   -0.198481
    72  F   -0.185710
    73  F   -0.176265
    74  F   -0.185477
    75  F   -0.183935
    76  F   -0.212877
    77  F   -0.194659
    78  F   -0.188670
    79  F   -0.180815
    80  F   -0.190879
    81  F   -0.210645
    82  F   -0.184244
    83  F   -0.176965
    84  F   -0.184399
    85  F   -0.197147
 Electronic spatial extent (au):  <R**2>=          50183.5233
 Charge=              0.0000 electrons
 Dipole moment (field-independent basis, Debye):
    X=             -4.8818    Y=              6.5106    Z=              6.8316  Tot=             10.6249
 Quadrupole moment (field-independent basis, Debye-Ang):
   XX=           -466.5944   YY=           -463.8111   ZZ=           -418.9289
   XY=              8.9844   XZ=             11.5122   YZ=             20.1062
 Traceless Quadrupole moment (field-independent basis, Debye-Ang):
   XX=            -16.8163   YY=            -14.0330   ZZ=             30.8492
   XY=              8.9844   XZ=             11.5122   YZ=             20.1062
 Octapole moment (field-independent basis, Debye-Ang**2):
  XXX=            -70.4495  YYY=            122.9877  ZZZ=             -4.6886  XYY=            -69.2928
  XXY=             17.6099  XXZ=             30.0318  XZZ=              3.9100  YZZ=            -48.3451
  YYZ=             10.3527  XYZ=            -56.7928
 Hexadecapole moment (field-independent basis, Debye-Ang**3):
 XXXX=         -26073.8739 YYYY=         -22196.9087 ZZZZ=         -13101.3945 XXXY=            240.1186
 XXXZ=             57.8542 YYYX=            -25.8767 YYYZ=             70.6727 ZZZX=            191.7707
 ZZZY=            178.5734 XXYY=          -7887.1115 XXZZ=          -6352.9983 YYZZ=          -5566.3747
 XXYZ=             36.2309 YYXZ=             70.9677 ZZXY=            193.7663
 N-N= 1.671336097331D+04 E-N=-4.729300812901D+04  KE= 5.778476705926D+03
 No NMR shielding tensors so no spin-rotation constants.
 Leave Link  601 at Mon Nov 27 19:22:26 2023, MaxMem=  2147483648 cpu:        30.4
 (Enter /cluster/apps/gaussian/g09/l9999.exe)
 1\1\GINC-EU-G1-001-4\SP\RwB97XD\GenECP\C40H12Cl1F24N1O3P2Pd1S1\SROEDIG
 ER\27-Nov-2023\0\\#p sp geom=allcheck scrf(solvent=dichloromethane,smd
 ) wb97xd genecp temperature=313 integral(grid=ultrafine)\\title\\0,1\P
 d,0,0.0851990678,-0.3915292139,-0.0747970295\Cl,0,0.3203015565,-0.4577
 362854,3.6890110125\S,0,1.591260284,1.6139352105,1.9088661875\P,0,-0.5
 138835227,-1.9723097137,-1.5348413848\P,0,2.2185347692,-0.5859611535,-
 1.0130394366\F,0,-4.0421329121,2.9804442425,0.0959037515\F,0,-3.140595
 6386,5.2761673656,-0.9034121879\F,0,-0.4684100021,5.7318531832,-1.1014
 659247\F,0,1.2752909723,3.8661508674,-0.3433853504\O,0,2.6215248886,0.
 6003296655,1.6545097355\O,0,1.9704105509,3.0096710324,2.1019969022\O,0
 ,-5.0165917552,-0.2240406561,3.4019887437\N,0,0.4609493486,1.433990266
 8,0.7688566476\C,0,-1.7028973658,-0.3024870702,0.8663213142\C,0,-2.189
 1105338,-1.4448771107,1.5135375339\H,0,-1.6689578478,-2.3981065493,1.3
 974702656\C,0,-3.2943295292,-1.4077456998,2.3522585796\H,0,-3.66336205
 94,-2.3034765629,2.8561157078\C,0,-3.9468897629,-0.1919115449,2.579355
 1826\C,0,-5.7024716971,0.9685115183,3.6587006876\H,0,-6.5386558862,0.7
 146782255,4.322619741\H,0,-6.1037583717,1.419911861,2.7339739829\H,0,-
 5.0612165099,1.7126456231,4.1640726376\C,0,-3.4597906342,0.96522185,1.
 9733050191\H,0,-3.9364789668,1.9239216837,2.1671977135\C,0,-2.34234708
 02,0.9234894393,1.1177775125\C,0,-1.8447965984,2.1948788681,0.54674455
 5\C,0,-2.724308601,3.1725292756,0.0750563561\C,0,-2.2768172706,4.37447
 42678,-0.4643464515\C,0,-0.9107008145,4.6103984153,-0.5589396843\C,0,-
 0.0128167651,3.6378059766,-0.1322598533\C,0,-0.4519031011,2.4393087471
 ,0.4459818095\C,0,0.8210537989,1.2145830366,3.4989197511\H,0,1.5799249
 77,1.4660661513,4.2520316217\H,0,-0.0470634003,1.8802817653,3.59509018
 53\C,0,1.9555259732,-1.4429490404,-2.6419692433\H,0,1.5173206123,-0.70
 2956706,-3.3282507041\H,0,2.9075403676,-1.7836067444,-3.072775413\C,0,
 1.0021836406,-2.6100262312,-2.4050953816\H,0,1.4636610534,-3.362039611
 6,-1.7507011197\H,0,0.7181381093,-3.1115370152,-3.3404158988\C,0,3.109
 4800712,0.9520716386,-1.3912996311\C,0,2.4498562344,1.8576163537,-2.22
 63249395\C,0,2.9502352944,3.1213886623,-2.5041284314\C,0,4.1410697538,
 3.5207285034,-1.904617033\C,0,4.8169486768,2.6489080445,-1.0543108655\
 C,0,4.3001558174,1.3816250763,-0.7974150601\C,0,3.3662259484,-1.738858
 9805,-0.1976480414\C,0,2.9999337618,-2.3953035965,0.9798619243\C,0,3.8
 586004463,-3.3018854238,1.5991726804\C,0,5.1033864604,-3.5675081154,1.
 03533066\C,0,5.4884290187,-2.9353223176,-0.1475599431\C,0,4.6142113281
 ,-2.0402593325,-0.7491636173\C,0,-1.4624132731,-3.42118371,-0.95721292
 09\C,0,-0.8185566981,-4.4374208733,-0.2446007597\C,0,-1.5180768622,-5.
 4617997002,0.3840187111\C,0,-2.9107358429,-5.4699257347,0.3313620873\C
 ,0,-3.5846862844,-4.4590336404,-0.3495855145\C,0,-2.8608726416,-3.4445
 783137,-0.9694654909\C,0,-1.4740833429,-1.3260501292,-2.9540151203\C,0
 ,-1.8579613553,-2.1893080654,-3.9874969174\C,0,-2.5741267056,-1.753324
 1544,-5.0937943882\C,0,-2.9249454186,-0.4061530957,-5.1878030004\C,0,-
 2.5569801174,0.4798928443,-4.1801826847\C,0,-1.8397176155,0.0187766587
 ,-3.0755117251\F,0,1.8193762228,-2.2108978777,1.531986119\F,0,4.998732
 1384,-1.451901273,-1.8743368251\F,0,6.6665268742,-3.1954546468,-0.6818
 035086\F,0,3.4927751089,-3.9189606244,2.705229596\F,0,5.9167559246,-4.
 4249140424,1.612162485\F,0,-1.5525654522,-3.4800732687,-3.9208861423\F
 ,0,-2.9243898706,-2.5954731484,-6.0459669917\F,0,-3.5994631508,0.02307
 44022,-6.2300285806\F,0,-2.8833255138,1.7520818938,-4.2716646426\F,0,-
 1.5230445056,0.9155894839,-2.1671275443\F,0,1.2732690603,1.5293344941,
 -2.7583030865\F,0,4.9893225561,0.6068800478,0.0163424607\F,0,5.9480249
 469,3.0283913636,-0.4930691054\F,0,4.6286833639,4.7188949003,-2.140956
 9652\F,0,2.2854753914,3.9484989434,-3.2857854971\F,0,0.5043833743,-4.4
 396292259,-0.11449122\F,0,-0.8747779198,-6.4092479744,1.0356164767\F,0
 ,-3.5856834087,-6.4293809303,0.9236692479\F,0,-4.9008887911,-4.4549837
 071,-0.3860914085\F,0,-3.5529206867,-2.4828012477,-1.5548677693\\Versi
 on=ES64L-G09RevD.01\State=1-A\HF=-5877.5465284\RMSD=2.806e-09\Dipole=-
 0.3953641,-3.5024125,-2.2473621\Quadrupole=-3.5253648,-12.0491361,15.5
 74501,-8.946347,-15.8620094,14.325085\PG=C01 [X(C40H12Cl1F24N1O3P2Pd1S
 1)]\\@


 In the beginning there was nothing, which exploded.
 Job cpu time:       2 days  6 hours  3 minutes 36.4 seconds.
 File lengths (MBytes):  RWF=   3550 Int=      0 D2E=      0 Chk=    250 Scr=      1
 Normal termination of Gaussian 09 at Mon Nov 27 19:22:27 2023.
