 Entering Gaussian System, Link 0=g09
 Input=cata-v5-sp.com
 Output=cata-v5-sp.log
 Initial command:
 /cluster/apps/gaussian/g09/l1.exe "/cluster/scratch/sroediger/michael/singlepoints/Gau-14592.inp" -scrdir="/cluster/scratch/sroediger/michael/singlepoints/"
 Entering Link 1 = /cluster/apps/gaussian/g09/l1.exe PID=     14599.
  
 Copyright (c) 1988,1990,1992,1993,1995,1998,2003,2009,2013,
            Gaussian, Inc.  All Rights Reserved.
  
 This is part of the Gaussian(R) 09 program.  It is based on
 the Gaussian(R) 03 system (copyright 2003, Gaussian, Inc.),
 the Gaussian(R) 98 system (copyright 1998, Gaussian, Inc.),
 the Gaussian(R) 94 system (copyright 1995, Gaussian, Inc.),
 the Gaussian 92(TM) system (copyright 1992, Gaussian, Inc.),
 the Gaussian 90(TM) system (copyright 1990, Gaussian, Inc.),
 the Gaussian 88(TM) system (copyright 1988, Gaussian, Inc.),
 the Gaussian 86(TM) system (copyright 1986, Carnegie Mellon
 University), and the Gaussian 82(TM) system (copyright 1983,
 Carnegie Mellon University). Gaussian is a federally registered
 trademark of Gaussian, Inc.
  
 This software contains proprietary and confidential information,
 including trade secrets, belonging to Gaussian, Inc.
  
 This software is provided under written license and may be
 used, copied, transmitted, or stored only in accord with that
 written license.
  
 The following legend is applicable only to US Government
 contracts under FAR:
  
                    RESTRICTED RIGHTS LEGEND
  
 Use, reproduction and disclosure by the US Government is
 subject to restrictions as set forth in subparagraphs (a)
 and (c) of the Commercial Computer Software - Restricted
 Rights clause in FAR 52.227-19.
  
 Gaussian, Inc.
 340 Quinnipiac St., Bldg. 40, Wallingford CT 06492
  
  
 ---------------------------------------------------------------
 Warning -- This program may not be used in any manner that
 competes with the business of Gaussian, Inc. or will provide
 assistance to any competitor of Gaussian, Inc.  The licensee
 of this program is prohibited from giving any competitor of
 Gaussian, Inc. access to this program.  By using this program,
 the user acknowledges that Gaussian, Inc. is engaged in the
 business of creating and licensing software in the field of
 computational chemistry and represents and warrants to the
 licensee that it is not a competitor of Gaussian, Inc. and that
 it will not use this program in any manner prohibited above.
 ---------------------------------------------------------------
  

 Cite this work as:
 Gaussian 09, Revision D.01,
 M. J. Frisch, G. W. Trucks, H. B. Schlegel, G. E. Scuseria, 
 M. A. Robb, J. R. Cheeseman, G. Scalmani, V. Barone, B. Mennucci, 
 G. A. Petersson, H. Nakatsuji, M. Caricato, X. Li, H. P. Hratchian, 
 A. F. Izmaylov, J. Bloino, G. Zheng, J. L. Sonnenberg, M. Hada, 
 M. Ehara, K. Toyota, R. Fukuda, J. Hasegawa, M. Ishida, T. Nakajima, 
 Y. Honda, O. Kitao, H. Nakai, T. Vreven, J. A. Montgomery, Jr., 
 J. E. Peralta, F. Ogliaro, M. Bearpark, J. J. Heyd, E. Brothers, 
 K. N. Kudin, V. N. Staroverov, T. Keith, R. Kobayashi, J. Normand, 
 K. Raghavachari, A. Rendell, J. C. Burant, S. S. Iyengar, J. Tomasi, 
 M. Cossi, N. Rega, J. M. Millam, M. Klene, J. E. Knox, J. B. Cross, 
 V. Bakken, C. Adamo, J. Jaramillo, R. Gomperts, R. E. Stratmann, 
 O. Yazyev, A. J. Austin, R. Cammi, C. Pomelli, J. W. Ochterski, 
 R. L. Martin, K. Morokuma, V. G. Zakrzewski, G. A. Voth, 
 P. Salvador, J. J. Dannenberg, S. Dapprich, A. D. Daniels, 
 O. Farkas, J. B. Foresman, J. V. Ortiz, J. Cioslowski, 
 and D. J. Fox, Gaussian, Inc., Wallingford CT, 2013.
 
 ******************************************
 Gaussian 09:  ES64L-G09RevD.01 24-Apr-2013
                 1-Mar-2024 
 ******************************************
 %nprocshared=8
 Will use up to    8 processors via shared memory.
 %mem=16GB
 %oldchk=cata-v5.chk
 %chk=cata-v5-sp.chk
 Copying data from "cata-v5.chk" to current chk file "cata-v5-sp.chk".
 ----------------------------------------------------------------------
 #p sp geom=allcheck scrf(solvent=dichloromethane,smd) wb97xd genecp te
 mperature=313 integral(grid=ultrafine)
 ----------------------------------------------------------------------
 1/29=7,38=1,112=313000/1;
 2/12=2,40=1/2;
 3/5=7,11=2,14=-4,16=1,17=8,25=1,30=1,70=32201,72=9,74=-58,75=-5/1,2,3;
 4//1;
 5/5=2,38=5,53=9/2;
 6/7=2,8=2,9=2,10=2,28=1/1;
 99/5=1,9=1/99;
 Leave Link    1 at Fri Mar  1 15:11:23 2024, MaxMem=  2147483648 cpu:         1.8
 (Enter /cluster/apps/gaussian/g09/l101.exe)
 Structure from the checkpoint file:  "cata-v5-sp.chk"
 -----
 title
 -----
 Charge =  0 Multiplicity = 1
 Redundant internal coordinates found in file.
 Pd,0,-0.1974341653,-0.3442203694,0.0070583238
 C,0,-0.890350034,1.3625476938,-0.6861560437
 C,0,-0.1000131318,2.1348651588,-1.5454559968
 H,0,0.9131078341,1.8129201139,-1.7850454017
 C,0,-0.5776502013,3.2994217492,-2.1290134958
 H,0,0.0437388233,3.8988472343,-2.7971752207
 C,0,-1.8878703238,3.7158679108,-1.8700540258
 C,0,-2.6978435616,2.9401849805,-1.0436191966
 H,0,-3.7286347089,3.235263251,-0.8625148639
 C,0,-2.2197341215,1.7578944007,-0.4429280437
 C,0,-3.1599947433,0.9515899585,0.3687457916
 C,0,-4.1392189765,1.5391358882,1.1759881195
 C,0,-5.0688917475,0.7813474677,1.881465536
 C,0,-5.0177797346,-0.6067755776,1.8088116584
 C,0,-4.0217928647,-1.2205674096,1.0569354309
 C,0,-3.1025333383,-0.464027483,0.319248763
 N,0,-2.0452385795,-1.0908261765,-0.3234679332
 S,0,-2.2314110844,-2.1884986843,-1.5013344261
 O,0,-1.2104098922,-3.2206014679,-1.333986819
 O,0,-3.6361860069,-2.5349156196,-1.689531891
 C,0,-1.8113448844,-1.32046718,-3.0437983434
 Cl,0,-0.0831609904,-1.0373972911,-3.2720409451
 H,0,-2.3463935203,-0.3619804722,-3.045701439
 H,0,-2.1740945512,-1.9763047809,-3.8459670194
 F,0,-3.9230157097,-2.5381075213,1.1036121862
 F,0,-5.8754397155,-1.3341604624,2.504566721
 F,0,-5.9863510711,1.3751462248,2.6311902583
 F,0,-4.2175628077,2.8631889848,1.3174319969
 O,0,-2.2880183067,4.8591007024,-2.4661987186
 C,0,-3.5915074268,5.3148064552,-2.2367306457
 H,0,-4.3490696811,4.5994228559,-2.6034559503
 H,0,-3.69812992,6.2565482686,-2.790040562
 H,0,-3.7781431567,5.5057911113,-1.164999565
 P,0,1.8496152897,0.2592934427,0.8052585709
 C,0,2.4938642673,-1.5047622484,0.8977496896
 C,0,1.6515222442,1.1142903506,2.4556935922
 C,0,3.0065154216,1.2408469159,-0.2335272386
 C,0,3.0292551967,-1.861331523,-0.505939344
 C,0,3.5625964189,-1.8240022685,1.9504818309
 C,0,1.2559129462,-2.4005911438,1.1568292864
 C,0,2.9393192354,1.3827945656,3.2513858544
 C,0,0.9736889433,2.4681230663,2.1487971252
 C,0,0.6906792234,0.278866476,3.3241880322
 H,0,2.8782741047,0.8156606836,-1.2427410576
 H,0,2.5682220248,2.2501177598,-0.2897889461
 C,0,4.4921547377,1.321657353,0.102497822
 C,0,3.40588998,-3.3444427177,-0.5698720117
 H,0,3.9163133966,-1.2542351518,-0.7436246491
 H,0,2.2605011572,-1.635719082,-1.2654358496
 C,0,3.9450139036,-3.308157778,1.8719912052
 H,0,4.4536824699,-1.1940912032,1.7983595492
 H,0,3.1794361979,-1.6000622976,2.9585701197
 C,0,1.6373654213,-3.8840911533,1.098843074
 H,0,0.4771627789,-2.2815465517,0.3607743712
 H,0,0.7898980225,-2.1701807406,2.1248048017
 C,0,2.6031863686,2.1164921207,4.5573951658
 H,0,3.6273624245,2.0051342031,2.6609259375
 H,0,3.4651869031,0.4430209263,3.4754897935
 C,0,0.6480915426,3.2057773718,3.4499610576
 H,0,1.6377522287,3.0941292101,1.5295524838
 H,0,0.0554276194,2.3028911014,1.5629405888
 C,0,0.359784507,1.0219268966,4.6206069172
 H,0,1.1502716468,-0.6919210402,3.5705057479
 H,0,-0.2334346106,0.0690045415,2.7570325481
 H,0,4.8991865802,0.3153937705,0.2926239679
 C,0,5.2930938584,1.9793057149,-1.0148069978
 H,0,4.6447859635,1.8856334556,1.0348599519
 C,0,4.4854984202,-3.6315187564,0.4766698107
 C,0,2.1705627023,-4.2039569676,-0.2974137176
 H,0,3.7955754249,-3.5619998252,-1.577727467
 C,0,2.7090069791,-4.1671105118,2.1537653438
 H,0,4.7204847729,-3.513549219,2.6282799044
 H,0,0.7342284711,-4.4812309104,1.2988021424
 C,0,1.9380116827,3.456254551,4.2338352575
 C,0,1.6521799543,1.2668275763,5.4027209942
 H,0,3.5397972655,2.2902374433,5.1125892998
 C,0,-0.3096332696,2.3564015104,4.2874593293
 H,0,0.1698515758,4.1661115461,3.1976206847
 H,0,-0.3263520295,0.3992929562,5.2175744096
 H,0,4.8738001239,2.980202375,-1.2192459747
 H,0,5.1535988539,1.4016619608,-1.9457443604
 C,0,6.7746243351,2.094701892,-0.6971055667
 H,0,4.7904299849,-4.6900376554,0.4268189912
 H,0,5.3870932601,-3.029308431,0.269877393
 H,0,2.4291313613,-5.2734542362,-0.3677440135
 H,0,1.3861836889,-4.0067329485,-1.0460417237
 H,0,2.9786988628,-5.2361796722,2.1366666855
 H,0,2.3185921707,-3.9522319768,3.1632098849
 H,0,1.7179148122,4.0044054507,5.1652011121
 H,0,2.6238138783,4.0887542378,3.64460487
 H,0,1.4312236969,1.7798064222,6.3536235173
 H,0,2.1275002131,0.3049928531,5.6610018938
 H,0,-0.5792533361,2.8884825904,5.2150088433
 H,0,-1.2461265517,2.1830433856,3.7312033638
 H,0,7.2237813886,1.1041448056,-0.5205529836
 H,0,7.3291066718,2.5685176435,-1.5206740685
 H,0,6.9438293021,2.69882774,0.208609665
 Recover connectivity data from disk.
 NAtoms=     97 NQM=       97 NQMF=       0 NMMI=      0 NMMIF=      0
                NMic=       0 NMicF=      0.
                    Isotopes and Nuclear Properties:
 (Nuclear quadrupole moments (NQMom) in fm**2, nuclear magnetic moments (NMagM)
  in nuclear magnetons)

  Atom         1           2           3           4           5           6           7           8           9          10
 IAtWgt=         106          12          12           1          12           1          12          12           1          12
 AtmWgt= 105.9032000  12.0000000  12.0000000   1.0078250  12.0000000   1.0078250  12.0000000  12.0000000   1.0078250  12.0000000
 NucSpn=           0           0           0           1           0           1           0           0           1           0
 AtZEff=-237.3600000  -3.6000000  -3.6000000  -1.0000000  -3.6000000  -1.0000000  -3.6000000  -3.6000000  -1.0000000  -3.6000000
 NQMom=    0.0000000   0.0000000   0.0000000   0.0000000   0.0000000   0.0000000   0.0000000   0.0000000   0.0000000   0.0000000
 NMagM=    0.0000000   0.0000000   0.0000000   2.7928460   0.0000000   2.7928460   0.0000000   0.0000000   2.7928460   0.0000000
 AtZNuc=  46.0000000   6.0000000   6.0000000   1.0000000   6.0000000   1.0000000   6.0000000   6.0000000   1.0000000   6.0000000

  Atom        11          12          13          14          15          16          17          18          19          20
 IAtWgt=          12          12          12          12          12          12          14          32          16          16
 AtmWgt=  12.0000000  12.0000000  12.0000000  12.0000000  12.0000000  12.0000000  14.0030740  31.9720718  15.9949146  15.9949146
 NucSpn=           0           0           0           0           0           0           2           0           0           0
 AtZEff=  -3.6000000  -3.6000000  -3.6000000  -3.6000000  -3.6000000  -3.6000000  -4.5500000 -13.6000000  -5.6000000  -5.6000000
 NQMom=    0.0000000   0.0000000   0.0000000   0.0000000   0.0000000   0.0000000   2.0440000   0.0000000   0.0000000   0.0000000
 NMagM=    0.0000000   0.0000000   0.0000000   0.0000000   0.0000000   0.0000000   0.4037610   0.0000000   0.0000000   0.0000000
 AtZNuc=   6.0000000   6.0000000   6.0000000   6.0000000   6.0000000   6.0000000   7.0000000  16.0000000   8.0000000   8.0000000

  Atom        21          22          23          24          25          26          27          28          29          30
 IAtWgt=          12          35           1           1          19          19          19          19          16          12
 AtmWgt=  12.0000000  34.9688527   1.0078250   1.0078250  18.9984033  18.9984033  18.9984033  18.9984033  15.9949146  12.0000000
 NucSpn=           0           3           1           1           1           1           1           1           0           0
 AtZEff=  -3.6000000 -14.2400000  -1.0000000  -1.0000000  -6.7500000  -6.7500000  -6.7500000  -6.7500000  -5.6000000  -3.6000000
 NQMom=    0.0000000  -8.1650000   0.0000000   0.0000000   0.0000000   0.0000000   0.0000000   0.0000000   0.0000000   0.0000000
 NMagM=    0.0000000   0.8218740   2.7928460   2.7928460   2.6288670   2.6288670   2.6288670   2.6288670   0.0000000   0.0000000
 AtZNuc=   6.0000000  17.0000000   1.0000000   1.0000000   9.0000000   9.0000000   9.0000000   9.0000000   8.0000000   6.0000000

  Atom        31          32          33          34          35          36          37          38          39          40
 IAtWgt=           1           1           1          31          12          12          12          12          12          12
 AtmWgt=   1.0078250   1.0078250   1.0078250  30.9737634  12.0000000  12.0000000  12.0000000  12.0000000  12.0000000  12.0000000
 NucSpn=           1           1           1           1           0           0           0           0           0           0
 AtZEff=  -1.0000000  -1.0000000  -1.0000000 -12.9400000  -3.6000000  -3.6000000  -3.6000000  -3.6000000  -3.6000000  -3.6000000
 NQMom=    0.0000000   0.0000000   0.0000000   0.0000000   0.0000000   0.0000000   0.0000000   0.0000000   0.0000000   0.0000000
 NMagM=    2.7928460   2.7928460   2.7928460   1.1316000   0.0000000   0.0000000   0.0000000   0.0000000   0.0000000   0.0000000
 AtZNuc=   1.0000000   1.0000000   1.0000000  15.0000000   6.0000000   6.0000000   6.0000000   6.0000000   6.0000000   6.0000000

  Atom        41          42          43          44          45          46          47          48          49          50
 IAtWgt=          12          12          12           1           1          12          12           1           1          12
 AtmWgt=  12.0000000  12.0000000  12.0000000   1.0078250   1.0078250  12.0000000  12.0000000   1.0078250   1.0078250  12.0000000
 NucSpn=           0           0           0           1           1           0           0           1           1           0
 AtZEff=  -3.6000000  -3.6000000  -3.6000000  -1.0000000  -1.0000000  -3.6000000  -3.6000000  -1.0000000  -1.0000000  -3.6000000
 NQMom=    0.0000000   0.0000000   0.0000000   0.0000000   0.0000000   0.0000000   0.0000000   0.0000000   0.0000000   0.0000000
 NMagM=    0.0000000   0.0000000   0.0000000   2.7928460   2.7928460   0.0000000   0.0000000   2.7928460   2.7928460   0.0000000
 AtZNuc=   6.0000000   6.0000000   6.0000000   1.0000000   1.0000000   6.0000000   6.0000000   1.0000000   1.0000000   6.0000000

  Atom        51          52          53          54          55          56          57          58          59          60
 IAtWgt=           1           1          12           1           1          12           1           1          12           1
 AtmWgt=   1.0078250   1.0078250  12.0000000   1.0078250   1.0078250  12.0000000   1.0078250   1.0078250  12.0000000   1.0078250
 NucSpn=           1           1           0           1           1           0           1           1           0           1
 AtZEff=  -1.0000000  -1.0000000  -3.6000000  -1.0000000  -1.0000000  -3.6000000  -1.0000000  -1.0000000  -3.6000000  -1.0000000
 NQMom=    0.0000000   0.0000000   0.0000000   0.0000000   0.0000000   0.0000000   0.0000000   0.0000000   0.0000000   0.0000000
 NMagM=    2.7928460   2.7928460   0.0000000   2.7928460   2.7928460   0.0000000   2.7928460   2.7928460   0.0000000   2.7928460
 AtZNuc=   1.0000000   1.0000000   6.0000000   1.0000000   1.0000000   6.0000000   1.0000000   1.0000000   6.0000000   1.0000000

  Atom        61          62          63          64          65          66          67          68          69          70
 IAtWgt=           1          12           1           1           1          12           1          12          12           1
 AtmWgt=   1.0078250  12.0000000   1.0078250   1.0078250   1.0078250  12.0000000   1.0078250  12.0000000  12.0000000   1.0078250
 NucSpn=           1           0           1           1           1           0           1           0           0           1
 AtZEff=  -1.0000000  -3.6000000  -1.0000000  -1.0000000  -1.0000000  -3.6000000  -1.0000000  -3.6000000  -3.6000000  -1.0000000
 NQMom=    0.0000000   0.0000000   0.0000000   0.0000000   0.0000000   0.0000000   0.0000000   0.0000000   0.0000000   0.0000000
 NMagM=    2.7928460   0.0000000   2.7928460   2.7928460   2.7928460   0.0000000   2.7928460   0.0000000   0.0000000   2.7928460
 AtZNuc=   1.0000000   6.0000000   1.0000000   1.0000000   1.0000000   6.0000000   1.0000000   6.0000000   6.0000000   1.0000000

  Atom        71          72          73          74          75          76          77          78          79          80
 IAtWgt=          12           1           1          12          12           1          12           1           1           1
 AtmWgt=  12.0000000   1.0078250   1.0078250  12.0000000  12.0000000   1.0078250  12.0000000   1.0078250   1.0078250   1.0078250
 NucSpn=           0           1           1           0           0           1           0           1           1           1
 AtZEff=  -3.6000000  -1.0000000  -1.0000000  -3.6000000  -3.6000000  -1.0000000  -3.6000000  -1.0000000  -1.0000000  -1.0000000
 NQMom=    0.0000000   0.0000000   0.0000000   0.0000000   0.0000000   0.0000000   0.0000000   0.0000000   0.0000000   0.0000000
 NMagM=    0.0000000   2.7928460   2.7928460   0.0000000   0.0000000   2.7928460   0.0000000   2.7928460   2.7928460   2.7928460
 AtZNuc=   6.0000000   1.0000000   1.0000000   6.0000000   6.0000000   1.0000000   6.0000000   1.0000000   1.0000000   1.0000000

  Atom        81          82          83          84          85          86          87          88          89          90
 IAtWgt=           1          12           1           1           1           1           1           1           1           1
 AtmWgt=   1.0078250  12.0000000   1.0078250   1.0078250   1.0078250   1.0078250   1.0078250   1.0078250   1.0078250   1.0078250
 NucSpn=           1           0           1           1           1           1           1           1           1           1
 AtZEff=  -1.0000000  -3.6000000  -1.0000000  -1.0000000  -1.0000000  -1.0000000  -1.0000000  -1.0000000  -1.0000000  -1.0000000
 NQMom=    0.0000000   0.0000000   0.0000000   0.0000000   0.0000000   0.0000000   0.0000000   0.0000000   0.0000000   0.0000000
 NMagM=    2.7928460   0.0000000   2.7928460   2.7928460   2.7928460   2.7928460   2.7928460   2.7928460   2.7928460   2.7928460
 AtZNuc=   1.0000000   6.0000000   1.0000000   1.0000000   1.0000000   1.0000000   1.0000000   1.0000000   1.0000000   1.0000000

  Atom        91          92          93          94          95          96          97
 IAtWgt=           1           1           1           1           1           1           1
 AtmWgt=   1.0078250   1.0078250   1.0078250   1.0078250   1.0078250   1.0078250   1.0078250
 NucSpn=           1           1           1           1           1           1           1
 AtZEff=  -1.0000000  -1.0000000  -1.0000000  -1.0000000  -1.0000000  -1.0000000  -1.0000000
 NQMom=    0.0000000   0.0000000   0.0000000   0.0000000   0.0000000   0.0000000   0.0000000
 NMagM=    2.7928460   2.7928460   2.7928460   2.7928460   2.7928460   2.7928460   2.7928460
 AtZNuc=   1.0000000   1.0000000   1.0000000   1.0000000   1.0000000   1.0000000   1.0000000
 Leave Link  101 at Fri Mar  1 15:11:23 2024, MaxMem=  2147483648 cpu:         2.2
 (Enter /cluster/apps/gaussian/g09/l202.exe)
 Stoichiometry    C38H47ClF4NO3PPdS
 Framework group  C1[X(C38H47ClF4NO3PPdS)]
 Deg. of freedom   285
 Full point group                 C1      NOp   1
 RotChk:  IX=0 Diff= 2.22D-15
 Largest Abelian subgroup         C1      NOp   1
 Largest concise Abelian subgroup C1      NOp   1
                         Standard orientation:                         
 ---------------------------------------------------------------------
 Center     Atomic      Atomic             Coordinates (Angstroms)
 Number     Number       Type             X           Y           Z
 ---------------------------------------------------------------------
      1         46           0        0.068602   -0.612954    0.281683
      2          6           0        1.202374    0.526968    1.416969
      3          6           0        0.714586    0.986741    2.645861
      4          1           0       -0.307393    0.754086    2.944017
      5          6           0        1.506450    1.718138    3.519290
      6          1           0        1.120292    2.075703    4.475796
      7          6           0        2.834397    1.998090    3.179660
      8          6           0        3.344472    1.518717    1.975185
      9          1           0        4.384773    1.700396    1.716020
     10          6           0        2.546115    0.778544    1.079640
     11          6           0        3.177250    0.245612   -0.149458
     12          6           0        4.155579    0.956280   -0.851991
     13          6           0        4.800271    0.424685   -1.964651
     14          6           0        4.452064   -0.843736   -2.417018
     15          6           0        3.444900   -1.552540   -1.771057
     16          6           0        2.813961   -1.036960   -0.631906
     17          7           0        1.731198   -1.702976   -0.077036
     18         16           0        1.812676   -3.203299    0.530669
     19          8           0        0.575673   -3.904320    0.192915
     20          8           0        3.117926   -3.807355    0.285198
     21          6           0        1.788208   -2.996404    2.337800
     22         17           0        0.207222   -2.571575    3.000255
     23          1           0        2.518481   -2.218677    2.596296
     24          1           0        2.092285   -3.972005    2.738954
     25          9           0        3.051569   -2.701018   -2.294638
     26          9           0        5.035027   -1.341009   -3.494802
     27          9           0        5.727304    1.126689   -2.600432
     28          9           0        4.507478    2.191405   -0.491583
     29          8           0        3.548121    2.717024    4.071972
     30          6           0        4.881881    3.021080    3.775256
     31          1           0        5.501192    2.111272    3.681099
     32          1           0        5.261738    3.621795    4.611466
     33          1           0        4.973104    3.606409    2.843063
     34         15           0       -1.875902    0.572224    0.204093
     35          6           0       -2.901499   -0.874605   -0.420678
     36          6           0       -1.697501    1.990871   -0.999987
     37          6           0       -2.649860    1.201939    1.748563
     38          6           0       -3.326017   -1.692186    0.818464
     39          6           0       -4.135425   -0.562761   -1.276556
     40          6           0       -1.934353   -1.761689   -1.245218
     41          6           0       -2.981487    2.757854   -1.356020
     42          6           0       -0.704006    2.975734   -0.344608
     43          6           0       -1.059890    1.452100   -2.295600
     44          1           0       -2.496077    0.383886    2.471668
     45          1           0       -1.995249    2.017650    2.094968
     46          6           0       -4.110367    1.640960    1.775866
     47          6           0       -4.011248   -2.992387    0.387769
     48          1           0       -4.020352   -1.109284    1.443008
     49          1           0       -2.439052   -1.921040    1.434610
     50          6           0       -4.824693   -1.869023   -1.693343
     51          1           0       -4.839111    0.076567   -0.719735
     52          1           0       -3.838970   -0.004246   -2.178431
     53          6           0       -2.625061   -3.059045   -1.680455
     54          1           0       -1.056849   -2.102845   -0.638650
     55          1           0       -1.551387   -1.226627   -2.125150
     56          6           0       -2.654129    3.904239   -2.323282
     57          1           0       -3.436589    3.178288   -0.447466
     58          1           0       -3.726026    2.087258   -1.809778
     59          6           0       -0.385368    4.125286   -1.303866
     60          1           0       -1.131563    3.383900    0.586479
     61          1           0        0.219622    2.444749   -0.064074
     62          6           0       -0.734346    2.603734   -3.249587
     63          1           0       -1.749920    0.752671   -2.794582
     64          1           0       -0.142790    0.887870   -2.050108
     65          1           0       -4.750514    0.878425    1.303488
     66          6           0       -4.602135    1.892889    3.196102
     67          1           0       -4.247539    2.555630    1.179856
     68          6           0       -5.247805   -2.652554   -0.448087
     69          6           0       -3.040234   -3.840942   -0.434496
     70          1           0       -4.312628   -3.544075    1.293180
     71          6           0       -3.854042   -2.713332   -2.523939
     72          1           0       -5.713280   -1.622310   -2.297544
     73          1           0       -1.908330   -3.651049   -2.270409
     74          6           0       -1.673952    4.871530   -1.655665
     75          6           0       -2.026344    3.344624   -3.601420
     76          1           0       -3.589854    4.433020   -2.569202
     77          6           0        0.249941    3.561669   -2.576186
     78          1           0        0.321124    4.809985   -0.807190
     79          1           0       -0.281952    2.186014   -4.163741
     80          1           0       -3.949558    2.642818    3.676880
     81          1           0       -4.480875    0.968551    3.788276
     82          6           0       -6.048751    2.354766    3.252274
     83          1           0       -5.771288   -3.576733   -0.744382
     84          1           0       -5.961081   -2.059056    0.149651
     85          1           0       -3.518786   -4.790539   -0.725842
     86          1           0       -2.145781   -4.093190    0.157886
     87          1           0       -4.349798   -3.638862   -2.860918
     88          1           0       -3.552744   -2.163504   -3.431950
     89          1           0       -1.453949    5.714443   -2.332015
     90          1           0       -2.124786    5.301250   -0.744807
     91          1           0       -1.815706    4.163895   -4.308960
     92          1           0       -2.731075    2.660583   -4.104618
     93          1           0        0.514758    4.380988   -3.265201
     94          1           0        1.185769    3.032815   -2.329136
     95          1           0       -6.724499    1.607186    2.806624
     96          1           0       -6.378939    2.525141    4.287728
     97          1           0       -6.189783    3.297022    2.698936
 ---------------------------------------------------------------------
 Rotational constants (GHZ):      0.0644638      0.0460915      0.0415505
 Leave Link  202 at Fri Mar  1 15:11:23 2024, MaxMem=  2147483648 cpu:         0.0
 (Enter /cluster/apps/gaussian/g09/l301.exe)
 General basis read from cards:  (5D, 7F)
 Centers:       2      3      5      7      8     10     11     12     13     14
 Centers:      15     16     21     30     35     36     37     38     39     40
 Centers:      41     42     43     46     47     50     53     56     59     62
 Centers:      66     68     69     71     74     75     77     82      4      6
 Centers:       9     23     24     31     32     33     44     45     48     49
 Centers:      51     52     54     55     57     58     60     61     63     64
 Centers:      65     67     70     72     73     76     78     79     80     81
 Centers:      83     84     85     86     87     88     89     90     91     92
 Centers:      93     94     95     96     97     18     25     26     27     28
 Centers:      17     34     22     19     20     29      1
 def2tzvp
 ****
 ======================================================================================================
                                       Pseudopotential Parameters
 ======================================================================================================
  Center     Atomic      Valence      Angular      Power
  Number     Number     Electrons     Momentum     of R      Exponent        Coefficient   SO-Coeffient
 ======================================================================================================
    1         46           18
                                      G and up 
                                                     2        1.0000000        0.00000000    0.00000000
                                      S - G
                                                     2       12.4300000      240.22904000    0.00000000
                                                     2        6.1707590       35.17194300    0.00000000
                                      P - G
                                                     2       11.0800000      170.41727600    0.00000000
                                                     2        5.8295540       28.47213300    0.00000000
                                      D - G
                                                     2        9.5100000       69.01384500    0.00000000
                                                     2        4.1397810       11.75086200    0.00000000
                                      F - G
                                                     2       13.2700000      -31.92955400    0.00000000
                                                     2        6.6300000       -5.39821700    0.00000000
    2          6
                                   No pseudopotential on this center.
    3          6
                                   No pseudopotential on this center.
    4          1
                                   No pseudopotential on this center.
    5          6
                                   No pseudopotential on this center.
    6          1
                                   No pseudopotential on this center.
    7          6
                                   No pseudopotential on this center.
    8          6
                                   No pseudopotential on this center.
    9          1
                                   No pseudopotential on this center.
   10          6
                                   No pseudopotential on this center.
   11          6
                                   No pseudopotential on this center.
   12          6
                                   No pseudopotential on this center.
   13          6
                                   No pseudopotential on this center.
   14          6
                                   No pseudopotential on this center.
   15          6
                                   No pseudopotential on this center.
   16          6
                                   No pseudopotential on this center.
   17          7
                                   No pseudopotential on this center.
   18         16
                                   No pseudopotential on this center.
   19          8
                                   No pseudopotential on this center.
   20          8
                                   No pseudopotential on this center.
   21          6
                                   No pseudopotential on this center.
   22         17
                                   No pseudopotential on this center.
   23          1
                                   No pseudopotential on this center.
   24          1
                                   No pseudopotential on this center.
   25          9
                                   No pseudopotential on this center.
   26          9
                                   No pseudopotential on this center.
   27          9
                                   No pseudopotential on this center.
   28          9
                                   No pseudopotential on this center.
   29          8
                                   No pseudopotential on this center.
   30          6
                                   No pseudopotential on this center.
   31          1
                                   No pseudopotential on this center.
   32          1
                                   No pseudopotential on this center.
   33          1
                                   No pseudopotential on this center.
   34         15
                                   No pseudopotential on this center.
   35          6
                                   No pseudopotential on this center.
   36          6
                                   No pseudopotential on this center.
   37          6
                                   No pseudopotential on this center.
   38          6
                                   No pseudopotential on this center.
   39          6
                                   No pseudopotential on this center.
   40          6
                                   No pseudopotential on this center.
   41          6
                                   No pseudopotential on this center.
   42          6
                                   No pseudopotential on this center.
   43          6
                                   No pseudopotential on this center.
   44          1
                                   No pseudopotential on this center.
   45          1
                                   No pseudopotential on this center.
   46          6
                                   No pseudopotential on this center.
   47          6
                                   No pseudopotential on this center.
   48          1
                                   No pseudopotential on this center.
   49          1
                                   No pseudopotential on this center.
   50          6
                                   No pseudopotential on this center.
   51          1
                                   No pseudopotential on this center.
   52          1
                                   No pseudopotential on this center.
   53          6
                                   No pseudopotential on this center.
   54          1
                                   No pseudopotential on this center.
   55          1
                                   No pseudopotential on this center.
   56          6
                                   No pseudopotential on this center.
   57          1
                                   No pseudopotential on this center.
   58          1
                                   No pseudopotential on this center.
   59          6
                                   No pseudopotential on this center.
   60          1
                                   No pseudopotential on this center.
   61          1
                                   No pseudopotential on this center.
   62          6
                                   No pseudopotential on this center.
   63          1
                                   No pseudopotential on this center.
   64          1
                                   No pseudopotential on this center.
   65          1
                                   No pseudopotential on this center.
   66          6
                                   No pseudopotential on this center.
   67          1
                                   No pseudopotential on this center.
   68          6
                                   No pseudopotential on this center.
   69          6
                                   No pseudopotential on this center.
   70          1
                                   No pseudopotential on this center.
   71          6
                                   No pseudopotential on this center.
   72          1
                                   No pseudopotential on this center.
   73          1
                                   No pseudopotential on this center.
   74          6
                                   No pseudopotential on this center.
   75          6
                                   No pseudopotential on this center.
   76          1
                                   No pseudopotential on this center.
   77          6
                                   No pseudopotential on this center.
   78          1
                                   No pseudopotential on this center.
   79          1
                                   No pseudopotential on this center.
   80          1
                                   No pseudopotential on this center.
   81          1
                                   No pseudopotential on this center.
   82          6
                                   No pseudopotential on this center.
   83          1
                                   No pseudopotential on this center.
   84          1
                                   No pseudopotential on this center.
   85          1
                                   No pseudopotential on this center.
   86          1
                                   No pseudopotential on this center.
   87          1
                                   No pseudopotential on this center.
   88          1
                                   No pseudopotential on this center.
   89          1
                                   No pseudopotential on this center.
   90          1
                                   No pseudopotential on this center.
   91          1
                                   No pseudopotential on this center.
   92          1
                                   No pseudopotential on this center.
   93          1
                                   No pseudopotential on this center.
   94          1
                                   No pseudopotential on this center.
   95          1
                                   No pseudopotential on this center.
   96          1
                                   No pseudopotential on this center.
   97          1
                                   No pseudopotential on this center.
 ======================================================================================================
 Ernie: Thresh=  0.10000D-02 Tol=  0.10000D-05 Strict=F.
 There are  2110 symmetry adapted cartesian basis functions of A   symmetry.
 There are  1859 symmetry adapted basis functions of A   symmetry.
  1859 basis functions,  3003 primitive gaussians,  2110 cartesian basis functions
   204 alpha electrons      204 beta electrons
       nuclear repulsion energy      8984.5448660691 Hartrees.
 IExCor= 4639 DFT=T Ex+Corr=wB97XD ExCW=0 ScaHFX=  1.000000
 ScaDFX=  1.000000  1.000000  1.000000  1.000000 ScalE2=  1.000000  1.000000
 IRadAn=      5 IRanWt=     -1 IRanGd=            0 ICorTp=0 IEmpDi=121
  HFx wShort=  0.000000 wLong=  0.200000 cFull=  0.222036 cShort=  0.000000 cLong=  0.777964
  DFx wShort=  0.000000 wLong=  0.200000 cFull=  0.000000 cShort=  0.000000 cLong=  1.000000
 NAtoms=   97 NActive=   97 NUniq=   97 SFac= 1.00D+00 NAtFMM=   60 NAOKFM=T Big=T
 Integral buffers will be    131072 words long.
 Raffenetti 2 integral format.
 Two-electron integral symmetry is turned on.
 R6Disp:  Grimme-D2 Dispersion energy=       -0.1318343510 Hartrees.
 Nuclear repulsion after empirical dispersion term =     8984.4130317181 Hartrees.
 ------------------------------------------------------------------------------
 Polarizable Continuum Model (PCM)
 =================================
 Model                : PCM (using non-symmetric T matrix).
 Atomic radii         : SMD-Coulomb.
 Polarization charges : Total charges.
 Charge compensation  : None.
 Solution method      : On-the-fly selection.
 Cavity type          : VdW (van der Waals Surface) (Alpha=1.000).
 Cavity algorithm     : GePol (No added spheres)
                        Default sphere list used, NSphG=   97.
                        Lebedev-Laikov grids with approx.  5.0 points / Ang**2.
                        Smoothing algorithm: Karplus/York (Gamma=1.0000).
                        Polarization charges: spherical gaussians, with
                                              point-specific exponents (IZeta= 3).
                        Self-potential: point-specific (ISelfS= 7).
                        Self-field    : sphere-specific E.n sum rule (ISelfD= 2).
 Solvent              : Dichloromethane, Eps=   8.930000 Eps(inf)=   2.028346
 ------------------------------------------------------------------------------
 GePol: Number of generator spheres                  =      97
 GePol: Total number of spheres                      =      97
 GePol: Number of exposed spheres                    =      97 (100.00%)
 GePol: Number of points                             =    6245
 GePol: Average weight of points                     =       0.11
 GePol: Minimum weight of points                     =   0.15D-11
 GePol: Maximum weight of points                     =    0.21501
 GePol: Number of points with low weight             =     411
 GePol: Fraction of low-weight points (<1% of avg)   =       6.58%
 GePol: Cavity surface area                          =    700.320 Ang**2
 GePol: Cavity volume                                =    757.859 Ang**3
 ------------------------------------------------------------------------------
 Atomic radii for non-electrostatic terms: SMD-CDS.
 ------------------------------------------------------------------------------
 PCM non-electrostatic energy =        -0.0174373718 Hartrees.
 Nuclear repulsion after PCM non-electrostatic terms =     8984.3955943463 Hartrees.
 Leave Link  301 at Fri Mar  1 15:11:24 2024, MaxMem=  2147483648 cpu:         0.5
 (Enter /cluster/apps/gaussian/g09/l302.exe)
 NPDir=0 NMtPBC=     1 NCelOv=     1 NCel=       1 NClECP=     1 NCelD=      1
         NCelK=      1 NCelE2=     1 NClLst=     1 CellRange=     0.0.
 One-electron integrals computed using PRISM.
   1 Symmetry operations used in ECPInt.
 ECPInt:  NShTT=  279378 NPrTT=  852134 LenC2=  210403 LenP2D=  417976.
 LDataN:  DoStor=T MaxTD1= 7 Len=  274
 NBasis=  1859 RedAO= T EigKep=  3.94D-06  NBF=  1859
 NBsUse=  1859 1.00D-06 EigRej= -1.00D+00 NBFU=  1859
 Precomputing XC quadrature grid using
 IXCGrd= 4 IRadAn=           5 IRanWt=          -1 IRanGd=           0 AccXCQ= 0.00D+00.
 Defaulting to unpruned grid for atomic number  46.
 Generated NRdTot=       0 NPtTot=           0 NUsed=           0 NTot=          32
 NSgBfM=  1952  1953  1964  1964  1964 MxSgAt=    97 MxSgA2=    97.
 Leave Link  302 at Fri Mar  1 15:11:34 2024, MaxMem=  2147483648 cpu:        85.9
 (Enter /cluster/apps/gaussian/g09/l303.exe)
 DipDrv:  MaxL=1.
 Leave Link  303 at Fri Mar  1 15:11:35 2024, MaxMem=  2147483648 cpu:         3.8
 (Enter /cluster/apps/gaussian/g09/l401.exe)
 ExpMin= 3.70D-02 ExpMax= 6.95D+04 ExpMxC= 2.37D+03 IAcc=3 IRadAn=         5 AccDes= 0.00D+00
 Harris functional with IExCor= 4639 and IRadAn=       5 diagonalized for initial guess.
 HarFok:  IExCor= 4639 AccDes= 0.00D+00 IRadAn=         5 IDoV= 1 UseB2=F ITyADJ=14
 ICtDFT=  3500011 ScaDFX=  1.000000  1.000000  1.000000  1.000000
 Defaulting to unpruned grid for atomic number  46.
 Defaulting to unpruned grid for atomic number  46.
 Defaulting to unpruned grid for atomic number  46.
 Defaulting to unpruned grid for atomic number  46.
 Defaulting to unpruned grid for atomic number  46.
 Defaulting to unpruned grid for atomic number  46.
 Defaulting to unpruned grid for atomic number  46.
 Defaulting to unpruned grid for atomic number  46.
 FoFCou: FMM=F IPFlag=           0 FMFlag=      100000 FMFlg1=        2001
         NFxFlg=           0 DoJE=T BraDBF=F KetDBF=T FulRan=T
         wScrn=  0.000000 ICntrl=     500 IOpCl=  0 I1Cent=   200000004 NGrid=           0
         NMat0=    1 NMatS0=      1 NMatT0=    0 NMatD0=    1 NMtDS0=    0 NMtDT0=    0
 Petite list used in FoFCou.
 Harris En= -3368.41554074952    
 JPrj=0 DoOrth=F DoCkMO=F.
 Leave Link  401 at Fri Mar  1 15:12:19 2024, MaxMem=  2147483648 cpu:       352.6
 (Enter /cluster/apps/gaussian/g09/l502.exe)
 Closed shell SCF:
 Using DIIS extrapolation, IDIIS=  1040.
 Integral symmetry usage will be decided dynamically.
 IVT=    13407190 IEndB=    13407190 NGot=  2147483648 MDV=  2138547309
 LenX=  2138547309 LenY=  2134093099
 Requested convergence on RMS density matrix=1.00D-08 within 128 cycles.
 Requested convergence on MAX density matrix=1.00D-06.
 Requested convergence on             energy=1.00D-06.
 No special actions if energy rises.
 Fock matrices will be formed incrementally for  20 cycles.

 Cycle   1  Pass 1  IDiag  1:
 FoFJK:  IHMeth= 1 ICntrl=       0 DoSepK=T KAlg= 0 I1Cent=   0 FoldK=F
 IRaf=         1 NMat=   1 IRICut=       1 DoRegI=T DoRafI=F ISym2E= 0.
 FoFCou: FMM=T IPFlag=           0 FMFlag=      100000 FMFlg1=        2001
         NFxFlg=           0 DoJE=T BraDBF=F KetDBF=F FulRan=T
         wScrn=  0.000000 ICntrl=     500 IOpCl=  0 I1Cent=           0 NGrid=           0
         NMat0=    1 NMatS0=      1 NMatT0=    0 NMatD0=    1 NMtDS0=    0 NMtDT0=    0
 Symmetry not used in FoFCou.
 FMM levels:  10  Number of levels for PrismC:   9
 Defaulting to unpruned grid for atomic number  46.
 Defaulting to unpruned grid for atomic number  46.
 Defaulting to unpruned grid for atomic number  46.
 Defaulting to unpruned grid for atomic number  46.
 Defaulting to unpruned grid for atomic number  46.
 Defaulting to unpruned grid for atomic number  46.
 Defaulting to unpruned grid for atomic number  46.
 Defaulting to unpruned grid for atomic number  46.
 Inv3:  Mode=1 IEnd=   117000075.
 Iteration    1 A*A^-1 deviation from unit magnitude is 6.99D-15 for   6241.
 Iteration    1 A*A^-1 deviation from orthogonality  is 8.83D-15 for   6211   5694.
 Iteration    1 A^-1*A deviation from unit magnitude is 7.44D-15 for   6241.
 Iteration    1 A^-1*A deviation from orthogonality  is 6.91D-10 for   6241   6189.
 Iteration    2 A*A^-1 deviation from unit magnitude is 7.22D-15 for    781.
 Iteration    2 A*A^-1 deviation from orthogonality  is 4.08D-15 for   3661   3032.
 Iteration    2 A^-1*A deviation from unit magnitude is 1.33D-15 for   1459.
 Iteration    2 A^-1*A deviation from orthogonality  is 4.80D-16 for   6183   2001.
 E= -3473.67754706190    
 DIIS: error= 4.16D-02 at cycle   1 NSaved=   1.
 NSaved= 1 IEnMin= 1 EnMin= -3473.67754706190     IErMin= 1 ErrMin= 4.16D-02
 ErrMax= 4.16D-02  0.00D+00 EMaxC= 1.00D-01 BMatC= 1.49D+01 BMatP= 1.49D+01
 IDIUse=3 WtCom= 5.84D-01 WtEn= 4.16D-01
 Coeff-Com:  0.100D+01
 Coeff-En:   0.100D+01
 Coeff:      0.100D+01
 Gap=    -0.647 Goal=   None    Shift=    0.000
 GapD=   -0.647 DampG=0.250 DampE=0.250 DampFc=0.1250 IDamp=-1.
 Damping current iteration by 1.25D-01
 RMSDP=1.18D-01 MaxDP=3.17D+01              OVMax= 9.84D-01

 Cycle   2  Pass 1  IDiag  1:
 RMSU=  1.47D-02    CP:  1.03D+00
 E= -3476.08040714629     Delta-E=       -2.402860084390 Rises=F Damp=T
 DIIS: error= 2.98D-02 at cycle   2 NSaved=   2.
 NSaved= 2 IEnMin= 2 EnMin= -3476.08040714629     IErMin= 2 ErrMin= 2.98D-02
 ErrMax= 2.98D-02  0.00D+00 EMaxC= 1.00D-01 BMatC= 7.04D+00 BMatP= 1.49D+01
 IDIUse=3 WtCom= 7.02D-01 WtEn= 2.98D-01
 Coeff-Com: -0.131D+01 0.231D+01
 Coeff-En:   0.000D+00 0.100D+01
 Coeff:     -0.920D+00 0.192D+01
 Gap=     0.437 Goal=   None    Shift=    0.000
 RMSDP=1.93D-02 MaxDP=3.97D+00 DE=-2.40D+00 OVMax= 8.51D-01

 Cycle   3  Pass 1  IDiag  1:
 RMSU=  4.84D-03    CP:  1.54D-01  1.16D-01
 E= -3482.24058079240     Delta-E=       -6.160173646111 Rises=F Damp=F
 DIIS: error= 1.68D-02 at cycle   3 NSaved=   3.
 NSaved= 3 IEnMin= 3 EnMin= -3482.24058079240     IErMin= 3 ErrMin= 1.68D-02
 ErrMax= 1.68D-02  0.00D+00 EMaxC= 1.00D-01 BMatC= 2.81D+00 BMatP= 7.04D+00
 IDIUse=3 WtCom= 8.32D-01 WtEn= 1.68D-01
 Coeff-Com: -0.313D+00 0.747D+00 0.566D+00
 Coeff-En:   0.147D+00 0.000D+00 0.853D+00
 Coeff:     -0.235D+00 0.621D+00 0.614D+00
 Gap=     0.344 Goal=   None    Shift=    0.000
 RMSDP=2.43D-03 MaxDP=9.75D-01 DE=-6.16D+00 OVMax= 3.11D-01

 Cycle   4  Pass 1  IDiag  1:
 RMSU=  1.92D-03    CP:  1.43D-01  4.02D-02  7.99D-01
 E= -3483.71267632819     Delta-E=       -1.472095535784 Rises=F Damp=F
 DIIS: error= 8.48D-03 at cycle   4 NSaved=   4.
 NSaved= 4 IEnMin= 4 EnMin= -3483.71267632819     IErMin= 4 ErrMin= 8.48D-03
 ErrMax= 8.48D-03  0.00D+00 EMaxC= 1.00D-01 BMatC= 6.15D-01 BMatP= 2.81D+00
 IDIUse=3 WtCom= 9.15D-01 WtEn= 8.48D-02
 Coeff-Com: -0.104D+00 0.176D+00 0.293D+00 0.635D+00
 Coeff-En:   0.000D+00 0.000D+00 0.179D+00 0.821D+00
 Coeff:     -0.953D-01 0.161D+00 0.284D+00 0.650D+00
 Gap=     0.334 Goal=   None    Shift=    0.000
 RMSDP=7.21D-04 MaxDP=1.46D-01 DE=-1.47D+00 OVMax= 9.97D-02

 Cycle   5  Pass 1  IDiag  1:
 RMSU=  6.34D-04    CP:  1.30D-01  4.31D-02  8.15D-01  8.61D-01
 E= -3484.10353861790     Delta-E=       -0.390862289716 Rises=F Damp=F
 DIIS: error= 2.98D-03 at cycle   5 NSaved=   5.
 NSaved= 5 IEnMin= 5 EnMin= -3484.10353861790     IErMin= 5 ErrMin= 2.98D-03
 ErrMax= 2.98D-03  0.00D+00 EMaxC= 1.00D-01 BMatC= 4.36D-02 BMatP= 6.15D-01
 IDIUse=3 WtCom= 9.70D-01 WtEn= 2.98D-02
 Coeff-Com: -0.486D-01 0.624D-01 0.700D-01 0.283D+00 0.633D+00
 Coeff-En:   0.000D+00 0.000D+00 0.000D+00 0.000D+00 0.100D+01
 Coeff:     -0.471D-01 0.605D-01 0.679D-01 0.275D+00 0.644D+00
 Gap=     0.290 Goal=   None    Shift=    0.000
 RMSDP=3.02D-04 MaxDP=7.25D-02 DE=-3.91D-01 OVMax= 4.65D-02

 Cycle   6  Pass 1  IDiag  1:
 RMSU=  2.36D-04    CP:  1.26D-01  3.60D-02  8.01D-01  9.11D-01  8.70D-01
 E= -3484.13646307629     Delta-E=       -0.032924458390 Rises=F Damp=F
 DIIS: error= 1.08D-03 at cycle   6 NSaved=   6.
 NSaved= 6 IEnMin= 6 EnMin= -3484.13646307629     IErMin= 6 ErrMin= 1.08D-03
 ErrMax= 1.08D-03  0.00D+00 EMaxC= 1.00D-01 BMatC= 5.96D-03 BMatP= 4.36D-02
 IDIUse=3 WtCom= 9.89D-01 WtEn= 1.08D-02
 Coeff-Com: -0.214D-01 0.233D-01-0.450D-03 0.482D-01 0.316D+00 0.634D+00
 Coeff-En:   0.000D+00 0.000D+00 0.000D+00 0.000D+00 0.639D-02 0.994D+00
 Coeff:     -0.212D-01 0.230D-01-0.445D-03 0.476D-01 0.313D+00 0.638D+00
 Gap=     0.291 Goal=   None    Shift=    0.000
 RMSDP=9.47D-05 MaxDP=1.56D-02 DE=-3.29D-02 OVMax= 1.38D-02

 Cycle   7  Pass 1  IDiag  1:
 RMSU=  6.05D-05    CP:  1.26D-01  3.64D-02  7.99D-01  9.15D-01  9.70D-01
                    CP:  8.56D-01
 E= -3484.14174362221     Delta-E=       -0.005280545915 Rises=F Damp=F
 DIIS: error= 2.10D-04 at cycle   7 NSaved=   7.
 NSaved= 7 IEnMin= 7 EnMin= -3484.14174362221     IErMin= 7 ErrMin= 2.10D-04
 ErrMax= 2.10D-04  0.00D+00 EMaxC= 1.00D-01 BMatC= 4.10D-04 BMatP= 5.96D-03
 IDIUse=3 WtCom= 9.98D-01 WtEn= 2.10D-03
 Coeff-Com: -0.570D-02 0.578D-02-0.844D-02-0.243D-01 0.323D-01 0.208D+00
 Coeff-Com:  0.793D+00
 Coeff-En:   0.000D+00 0.000D+00 0.000D+00 0.000D+00 0.000D+00 0.000D+00
 Coeff-En:   0.100D+01
 Coeff:     -0.569D-02 0.577D-02-0.842D-02-0.243D-01 0.322D-01 0.208D+00
 Coeff:      0.793D+00
 Gap=     0.293 Goal=   None    Shift=    0.000
 RMSDP=3.07D-05 MaxDP=5.88D-03 DE=-5.28D-03 OVMax= 7.16D-03

 Cycle   8  Pass 1  IDiag  1:
 RMSU=  2.33D-05    CP:  1.26D-01  3.65D-02  7.99D-01  9.14D-01  9.91D-01
                    CP:  9.06D-01  1.11D+00
 E= -3484.14233106451     Delta-E=       -0.000587442304 Rises=F Damp=F
 DIIS: error= 7.85D-05 at cycle   8 NSaved=   8.
 NSaved= 8 IEnMin= 8 EnMin= -3484.14233106451     IErMin= 8 ErrMin= 7.85D-05
 ErrMax= 7.85D-05  0.00D+00 EMaxC= 1.00D-01 BMatC= 4.71D-05 BMatP= 4.10D-04
 IDIUse=1 WtCom= 1.00D+00 WtEn= 0.00D+00
 Coeff-Com: -0.323D-03 0.120D-03-0.354D-02-0.144D-01-0.166D-01 0.148D-01
 Coeff-Com:  0.296D+00 0.724D+00
 Coeff:     -0.323D-03 0.120D-03-0.354D-02-0.144D-01-0.166D-01 0.148D-01
 Coeff:      0.296D+00 0.724D+00
 Gap=     0.293 Goal=   None    Shift=    0.000
 RMSDP=1.35D-05 MaxDP=2.35D-03 DE=-5.87D-04 OVMax= 3.60D-03

 Cycle   9  Pass 1  IDiag  1:
 RMSU=  9.52D-06    CP:  1.25D-01  3.64D-02  7.99D-01  9.13D-01  9.94D-01
                    CP:  9.30D-01  1.22D+00  1.06D+00
 E= -3484.14241812156     Delta-E=       -0.000087057044 Rises=F Damp=F
 DIIS: error= 2.82D-05 at cycle   9 NSaved=   9.
 NSaved= 9 IEnMin= 9 EnMin= -3484.14241812156     IErMin= 9 ErrMin= 2.82D-05
 ErrMax= 2.82D-05  0.00D+00 EMaxC= 1.00D-01 BMatC= 9.05D-06 BMatP= 4.71D-05
 IDIUse=1 WtCom= 1.00D+00 WtEn= 0.00D+00
 Coeff-Com:  0.796D-03-0.101D-02-0.411D-03-0.112D-02-0.910D-02-0.242D-01
 Coeff-Com: -0.302D-01 0.257D+00 0.808D+00
 Coeff:      0.796D-03-0.101D-02-0.411D-03-0.112D-02-0.910D-02-0.242D-01
 Coeff:     -0.302D-01 0.257D+00 0.808D+00
 Gap=     0.294 Goal=   None    Shift=    0.000
 RMSDP=6.11D-06 MaxDP=8.09D-04 DE=-8.71D-05 OVMax= 1.66D-03

 Cycle  10  Pass 1  IDiag  1:
 RMSU=  4.19D-06    CP:  1.25D-01  3.64D-02  7.99D-01  9.13D-01  9.97D-01
                    CP:  9.35D-01  1.26D+00  1.14D+00  1.18D+00
 E= -3484.14243751124     Delta-E=       -0.000019389679 Rises=F Damp=F
 DIIS: error= 1.37D-05 at cycle  10 NSaved=  10.
 NSaved=10 IEnMin=10 EnMin= -3484.14243751124     IErMin=10 ErrMin= 1.37D-05
 ErrMax= 1.37D-05  0.00D+00 EMaxC= 1.00D-01 BMatC= 1.58D-06 BMatP= 9.05D-06
 IDIUse=1 WtCom= 1.00D+00 WtEn= 0.00D+00
 Coeff-Com:  0.310D-03-0.371D-03 0.248D-03 0.141D-02-0.104D-02-0.914D-02
 Coeff-Com: -0.536D-01-0.246D-01 0.300D+00 0.787D+00
 Coeff:      0.310D-03-0.371D-03 0.248D-03 0.141D-02-0.104D-02-0.914D-02
 Coeff:     -0.536D-01-0.246D-01 0.300D+00 0.787D+00
 Gap=     0.294 Goal=   None    Shift=    0.000
 RMSDP=2.44D-06 MaxDP=2.57D-04 DE=-1.94D-05 OVMax= 1.02D-03

 Cycle  11  Pass 1  IDiag  1:
 RMSU=  1.35D-06    CP:  1.25D-01  3.64D-02  7.99D-01  9.13D-01  9.96D-01
                    CP:  9.38D-01  1.27D+00  1.17D+00  1.33D+00  1.21D+00
 E= -3484.14244090384     Delta-E=       -0.000003392604 Rises=F Damp=F
 DIIS: error= 5.39D-06 at cycle  11 NSaved=  11.
 NSaved=11 IEnMin=11 EnMin= -3484.14244090384     IErMin=11 ErrMin= 5.39D-06
 ErrMax= 5.39D-06  0.00D+00 EMaxC= 1.00D-01 BMatC= 3.86D-07 BMatP= 1.58D-06
 IDIUse=1 WtCom= 1.00D+00 WtEn= 0.00D+00
 Coeff-Com: -0.186D-04 0.519D-04 0.167D-03 0.258D-03-0.438D-03-0.165D-02
 Coeff-Com: -0.137D-01-0.334D-01 0.534D-02 0.310D+00 0.734D+00
 Coeff:     -0.186D-04 0.519D-04 0.167D-03 0.258D-03-0.438D-03-0.165D-02
 Coeff:     -0.137D-01-0.334D-01 0.534D-02 0.310D+00 0.734D+00
 Gap=     0.294 Goal=   None    Shift=    0.000
 RMSDP=1.09D-06 MaxDP=2.23D-04 DE=-3.39D-06 OVMax= 3.50D-04

 Cycle  12  Pass 1  IDiag  1:
 RMSU=  5.83D-07    CP:  1.25D-01  3.64D-02  7.99D-01  9.12D-01  9.96D-01
                    CP:  9.38D-01  1.27D+00  1.17D+00  1.39D+00  1.33D+00
                    CP:  1.04D+00
 E= -3484.14244153337     Delta-E=       -0.000000629534 Rises=F Damp=F
 DIIS: error= 2.04D-06 at cycle  12 NSaved=  12.
 NSaved=12 IEnMin=12 EnMin= -3484.14244153337     IErMin=12 ErrMin= 2.04D-06
 ErrMax= 2.04D-06  0.00D+00 EMaxC= 1.00D-01 BMatC= 4.17D-08 BMatP= 3.86D-07
 IDIUse=1 WtCom= 1.00D+00 WtEn= 0.00D+00
 Coeff-Com: -0.163D-04 0.263D-04 0.684D-04-0.290D-04 0.233D-04 0.914D-04
 Coeff-Com:  0.399D-03-0.581D-02-0.287D-01-0.138D-01 0.172D+00 0.875D+00
 Coeff:     -0.163D-04 0.263D-04 0.684D-04-0.290D-04 0.233D-04 0.914D-04
 Coeff:      0.399D-03-0.581D-02-0.287D-01-0.138D-01 0.172D+00 0.875D+00
 Gap=     0.294 Goal=   None    Shift=    0.000
 RMSDP=5.12D-07 MaxDP=1.45D-04 DE=-6.30D-07 OVMax= 2.21D-04

 Cycle  13  Pass 1  IDiag  1:
 RMSU=  2.74D-07    CP:  1.25D-01  3.64D-02  7.99D-01  9.12D-01  9.96D-01
                    CP:  9.38D-01  1.27D+00  1.18D+00  1.41D+00  1.37D+00
                    CP:  1.13D+00  1.30D+00
 E= -3484.14244167152     Delta-E=       -0.000000138149 Rises=F Damp=F
 DIIS: error= 1.06D-06 at cycle  13 NSaved=  13.
 NSaved=13 IEnMin=13 EnMin= -3484.14244167152     IErMin=13 ErrMin= 1.06D-06
 ErrMax= 1.06D-06  0.00D+00 EMaxC= 1.00D-01 BMatC= 1.16D-08 BMatP= 4.17D-08
 IDIUse=1 WtCom= 1.00D+00 WtEn= 0.00D+00
 Coeff-Com:  0.581D-05-0.104D-04 0.415D-05 0.622D-05 0.264D-03 0.508D-03
 Coeff-Com:  0.136D-02 0.135D-02-0.716D-02-0.555D-01-0.803D-01 0.307D+00
 Coeff-Com:  0.832D+00
 Coeff:      0.581D-05-0.104D-04 0.415D-05 0.622D-05 0.264D-03 0.508D-03
 Coeff:      0.136D-02 0.135D-02-0.716D-02-0.555D-01-0.803D-01 0.307D+00
 Coeff:      0.832D+00
 Gap=     0.294 Goal=   None    Shift=    0.000
 RMSDP=2.52D-07 MaxDP=4.97D-05 DE=-1.38D-07 OVMax= 1.24D-04

 Cycle  14  Pass 1  IDiag  1:
 RMSU=  1.23D-07    CP:  1.25D-01  3.64D-02  7.99D-01  9.12D-01  9.96D-01
                    CP:  9.38D-01  1.27D+00  1.18D+00  1.42D+00  1.39D+00
                    CP:  1.17D+00  1.53D+00  1.26D+00
 E= -3484.14244171195     Delta-E=       -0.000000040423 Rises=F Damp=F
 DIIS: error= 5.57D-07 at cycle  14 NSaved=  14.
 NSaved=14 IEnMin=14 EnMin= -3484.14244171195     IErMin=14 ErrMin= 5.57D-07
 ErrMax= 5.57D-07  0.00D+00 EMaxC= 1.00D-01 BMatC= 2.83D-09 BMatP= 1.16D-08
 IDIUse=1 WtCom= 1.00D+00 WtEn= 0.00D+00
 Coeff-Com:  0.372D-05-0.601D-05-0.141D-04 0.631D-05 0.132D-03 0.388D-03
 Coeff-Com:  0.681D-03 0.778D-03 0.158D-02-0.207D-01-0.611D-01-0.595D-01
 Coeff-Com:  0.318D+00 0.820D+00
 Coeff:      0.372D-05-0.601D-05-0.141D-04 0.631D-05 0.132D-03 0.388D-03
 Coeff:      0.681D-03 0.778D-03 0.158D-02-0.207D-01-0.611D-01-0.595D-01
 Coeff:      0.318D+00 0.820D+00
 Gap=     0.294 Goal=   None    Shift=    0.000
 RMSDP=1.09D-07 MaxDP=1.62D-05 DE=-4.04D-08 OVMax= 6.90D-05

 Cycle  15  Pass 1  IDiag  1:
 RMSU=  5.87D-08    CP:  1.25D-01  3.64D-02  7.99D-01  9.12D-01  9.96D-01
                    CP:  9.38D-01  1.27D+00  1.17D+00  1.43D+00  1.39D+00
                    CP:  1.19D+00  1.60D+00  1.45D+00  1.34D+00
 E= -3484.14244172377     Delta-E=       -0.000000011823 Rises=F Damp=F
 DIIS: error= 3.37D-07 at cycle  15 NSaved=  15.
 NSaved=15 IEnMin=15 EnMin= -3484.14244172377     IErMin=15 ErrMin= 3.37D-07
 ErrMax= 3.37D-07  0.00D+00 EMaxC= 1.00D-01 BMatC= 6.51D-10 BMatP= 2.83D-09
 IDIUse=1 WtCom= 1.00D+00 WtEn= 0.00D+00
 Coeff-Com:  0.192D-06-0.221D-06-0.682D-05-0.353D-06-0.188D-04 0.841D-04
 Coeff-Com:  0.678D-04-0.156D-03 0.149D-02 0.385D-02-0.161D-02-0.813D-01
 Coeff-Com: -0.800D-01 0.268D+00 0.889D+00
 Coeff:      0.192D-06-0.221D-06-0.682D-05-0.353D-06-0.188D-04 0.841D-04
 Coeff:      0.678D-04-0.156D-03 0.149D-02 0.385D-02-0.161D-02-0.813D-01
 Coeff:     -0.800D-01 0.268D+00 0.889D+00
 Gap=     0.294 Goal=   None    Shift=    0.000
 RMSDP=6.86D-08 MaxDP=9.97D-06 DE=-1.18D-08 OVMax= 3.65D-05

 Cycle  16  Pass 1  IDiag  1:
 RMSU=  3.21D-08    CP:  1.25D-01  3.64D-02  7.99D-01  9.12D-01  9.96D-01
                    CP:  9.38D-01  1.27D+00  1.17D+00  1.43D+00  1.39D+00
                    CP:  1.20D+00  1.63D+00  1.54D+00  1.60D+00  1.41D+00
 E= -3484.14244172635     Delta-E=       -0.000000002581 Rises=F Damp=F
 DIIS: error= 1.27D-07 at cycle  16 NSaved=  16.
 NSaved=16 IEnMin=16 EnMin= -3484.14244172635     IErMin=16 ErrMin= 1.27D-07
 ErrMax= 1.27D-07  0.00D+00 EMaxC= 1.00D-01 BMatC= 1.69D-10 BMatP= 6.51D-10
 IDIUse=1 WtCom= 1.00D+00 WtEn= 0.00D+00
 Coeff-Com: -0.122D-05 0.171D-05 0.220D-06-0.141D-05-0.517D-04-0.728D-04
 Coeff-Com: -0.133D-03-0.134D-03 0.565D-03 0.584D-02 0.124D-01-0.190D-01
 Coeff-Com: -0.112D+00-0.959D-01 0.385D+00 0.823D+00
 Coeff:     -0.122D-05 0.171D-05 0.220D-06-0.141D-05-0.517D-04-0.728D-04
 Coeff:     -0.133D-03-0.134D-03 0.565D-03 0.584D-02 0.124D-01-0.190D-01
 Coeff:     -0.112D+00-0.959D-01 0.385D+00 0.823D+00
 Gap=     0.294 Goal=   None    Shift=    0.000
 RMSDP=4.44D-08 MaxDP=4.85D-06 DE=-2.58D-09 OVMax= 1.73D-05

 Cycle  17  Pass 1  IDiag  1:
 RMSU=  2.45D-08    CP:  1.25D-01  3.64D-02  7.99D-01  9.12D-01  9.96D-01
                    CP:  9.38D-01  1.27D+00  1.17D+00  1.43D+00  1.39D+00
                    CP:  1.20D+00  1.65D+00  1.57D+00  1.74D+00  1.75D+00
                    CP:  1.55D+00
 E= -3484.14244172746     Delta-E=       -0.000000001108 Rises=F Damp=F
 DIIS: error= 5.71D-08 at cycle  17 NSaved=  17.
 NSaved=17 IEnMin=17 EnMin= -3484.14244172746     IErMin=17 ErrMin= 5.71D-08
 ErrMax= 5.71D-08  0.00D+00 EMaxC= 1.00D-01 BMatC= 2.50D-11 BMatP= 1.69D-10
 IDIUse=1 WtCom= 1.00D+00 WtEn= 0.00D+00
 Coeff-Com: -0.331D-06 0.498D-06 0.154D-05 0.103D-05-0.189D-04-0.587D-04
 Coeff-Com: -0.113D-03 0.166D-04 0.392D-03 0.142D-02 0.392D-02 0.547D-02
 Coeff-Com: -0.232D-01-0.744D-01-0.188D-01 0.285D+00 0.820D+00
 Coeff:     -0.331D-06 0.498D-06 0.154D-05 0.103D-05-0.189D-04-0.587D-04
 Coeff:     -0.113D-03 0.166D-04 0.392D-03 0.142D-02 0.392D-02 0.547D-02
 Coeff:     -0.232D-01-0.744D-01-0.188D-01 0.285D+00 0.820D+00
 Gap=     0.294 Goal=   None    Shift=    0.000
 RMSDP=3.51D-08 MaxDP=3.28D-06 DE=-1.11D-09 OVMax= 4.64D-06

 Cycle  18  Pass 1  IDiag  1:
 RMSU=  1.81D-08    CP:  1.25D-01  3.64D-02  7.99D-01  9.12D-01  9.96D-01
                    CP:  9.38D-01  1.27D+00  1.17D+00  1.43D+00  1.39D+00
                    CP:  1.20D+00  1.65D+00  1.58D+00  1.77D+00  1.94D+00
                    CP:  2.11D+00  1.83D+00
 E= -3484.14244172572     Delta-E=        0.000000001735 Rises=F Damp=F
 DIIS: error= 8.63D-08 at cycle  18 NSaved=  18.
 NSaved=18 IEnMin=17 EnMin= -3484.14244172746     IErMin=17 ErrMin= 5.71D-08
 ErrMax= 8.63D-08  0.00D+00 EMaxC= 1.00D-01 BMatC= 4.57D-12 BMatP= 2.50D-11
 IDIUse=1 WtCom= 1.00D+00 WtEn= 0.00D+00
 Coeff-Com:  0.333D-07-0.367D-07 0.610D-06 0.102D-05 0.199D-05-0.129D-04
 Coeff-Com: -0.355D-04 0.163D-04 0.123D-03-0.339D-03-0.477D-03 0.442D-02
 Coeff-Com:  0.948D-02-0.111D-01-0.659D-01-0.307D-01 0.260D+00 0.835D+00
 Coeff:      0.333D-07-0.367D-07 0.610D-06 0.102D-05 0.199D-05-0.129D-04
 Coeff:     -0.355D-04 0.163D-04 0.123D-03-0.339D-03-0.477D-03 0.442D-02
 Coeff:      0.948D-02-0.111D-01-0.659D-01-0.307D-01 0.260D+00 0.835D+00
 Gap=     0.294 Goal=   None    Shift=    0.000
 RMSDP=4.66D-08 MaxDP=4.39D-06 DE= 1.74D-09 OVMax= 1.93D-06

 Cycle  19  Pass 1  IDiag  1:
 RMSU=  1.72D-08    CP:  1.25D-01  3.64D-02  7.99D-01  9.12D-01  9.96D-01
                    CP:  9.38D-01  1.27D+00  1.17D+00  1.43D+00  1.39D+00
                    CP:  1.20D+00  1.65D+00  1.58D+00  1.80D+00  2.09D+00
                    CP:  2.70D+00  3.00D+00  2.21D+00
 E= -3484.14244172715     Delta-E=       -0.000000001422 Rises=F Damp=F
 DIIS: error= 1.37D-07 at cycle  19 NSaved=  19.
 NSaved=19 IEnMin=17 EnMin= -3484.14244172746     IErMin=17 ErrMin= 5.71D-08
 ErrMax= 1.37D-07  0.00D+00 EMaxC= 1.00D-01 BMatC= 2.68D-12 BMatP= 4.57D-12
 IDIUse=1 WtCom= 1.00D+00 WtEn= 0.00D+00
 Coeff-Com:  0.466D-07-0.485D-07 0.240D-06 0.477D-06 0.272D-05-0.328D-05
 Coeff-Com: -0.989D-05 0.114D-04 0.332D-04-0.316D-03-0.600D-03 0.211D-02
 Coeff-Com:  0.739D-02-0.702D-03-0.359D-01-0.393D-01 0.765D-01 0.459D+00
 Coeff-Com:  0.532D+00
 Coeff:      0.466D-07-0.485D-07 0.240D-06 0.477D-06 0.272D-05-0.328D-05
 Coeff:     -0.989D-05 0.114D-04 0.332D-04-0.316D-03-0.600D-03 0.211D-02
 Coeff:      0.739D-02-0.702D-03-0.359D-01-0.393D-01 0.765D-01 0.459D+00
 Coeff:      0.532D+00
 Gap=     0.294 Goal=   None    Shift=    0.000
 RMSDP=4.18D-08 MaxDP=4.22D-06 DE=-1.42D-09 OVMax= 5.67D-07

 Cycle  20  Pass 1  IDiag  1:
 RMSU=  2.61D-08    CP:  1.25D-01  3.64D-02  7.99D-01  9.12D-01  9.96D-01
                    CP:  9.38D-01  1.27D+00  1.17D+00  1.43D+00  1.39D+00
                    CP:  1.20D+00  1.65D+00  1.58D+00  1.82D+00  2.21D+00
                    CP:  3.00D+00  3.00D+00  3.00D+00  2.05D+00
 E= -3484.14244172620     Delta-E=        0.000000000950 Rises=F Damp=F
 DIIS: error= 1.58D-07 at cycle  20 NSaved=  20.
 NSaved=20 IEnMin=17 EnMin= -3484.14244172746     IErMin=17 ErrMin= 5.71D-08
 ErrMax= 1.58D-07  0.00D+00 EMaxC= 1.00D-01 BMatC= 2.95D-12 BMatP= 2.68D-12
 IDIUse=1 WtCom= 1.00D+00 WtEn= 0.00D+00
 Coeff-Com:  0.613D-07-0.641D-07 0.219D-06 0.498D-06 0.389D-05-0.183D-05
 Coeff-Com: -0.703D-05 0.153D-04 0.267D-04-0.438D-03-0.890D-03 0.227D-02
 Coeff-Com:  0.972D-02 0.212D-02-0.419D-01-0.577D-01 0.584D-01 0.541D+00
 Coeff-Com:  0.903D+00-0.416D+00
 Coeff:      0.613D-07-0.641D-07 0.219D-06 0.498D-06 0.389D-05-0.183D-05
 Coeff:     -0.703D-05 0.153D-04 0.267D-04-0.438D-03-0.890D-03 0.227D-02
 Coeff:      0.972D-02 0.212D-02-0.419D-01-0.577D-01 0.584D-01 0.541D+00
 Coeff:      0.903D+00-0.416D+00
 Gap=     0.294 Goal=   None    Shift=    0.000
 RMSDP=2.36D-08 MaxDP=2.82D-06 DE= 9.50D-10 OVMax= 4.04D-08

 Cycle  21  Pass 1  IDiag  1:
 Restarting incremental Fock formation.
 E= -3484.14244172642     Delta-E=       -0.000000000227 Rises=F Damp=F
 DIIS: error= 3.12D-07 at cycle  21 NSaved=  20.
 NSaved=20 IEnMin=16 EnMin= -3484.14244172746     IErMin=16 ErrMin= 5.71D-08
 ErrMax= 3.12D-07  0.00D+00 EMaxC= 1.00D-01 BMatC= 3.26D-11 BMatP= 2.68D-12
 IDIUse=1 WtCom= 1.00D+00 WtEn= 0.00D+00
 Coeff-Com:  0.114D-07 0.148D-06 0.389D-06 0.382D-05 0.621D-06-0.800D-06
 Coeff-Com:  0.916D-05-0.309D-05-0.373D-03-0.742D-03 0.169D-02 0.804D-02
 Coeff-Com:  0.312D-02-0.321D-01-0.513D-01 0.234D-01 0.410D+00 0.751D+00
 Coeff-Com: -0.233D+00 0.120D+00
 Coeff:      0.114D-07 0.148D-06 0.389D-06 0.382D-05 0.621D-06-0.800D-06
 Coeff:      0.916D-05-0.309D-05-0.373D-03-0.742D-03 0.169D-02 0.804D-02
 Coeff:      0.312D-02-0.321D-01-0.513D-01 0.234D-01 0.410D+00 0.751D+00
 Coeff:     -0.233D+00 0.120D+00
 Gap=     0.294 Goal=   None    Shift=    0.000
 RMSDP=3.00D-08 MaxDP=2.86D-06 DE=-2.27D-10 OVMax= 1.85D-07

 Cycle  22  Pass 1  IDiag  1:
 RMSU=  3.00D-08    CP:  1.00D+00
 E= -3484.14244172714     Delta-E=       -0.000000000715 Rises=F Damp=F
 DIIS: error= 3.09D-07 at cycle  22 NSaved=  20.
 NSaved=20 IEnMin=15 EnMin= -3484.14244172746     IErMin=15 ErrMin= 5.71D-08
 ErrMax= 3.09D-07  0.00D+00 EMaxC= 1.00D-01 BMatC= 2.70D-11 BMatP= 2.68D-12
 IDIUse=1 WtCom= 1.00D+00 WtEn= 0.00D+00
 Coeff-Com:  0.691D-07 0.204D-06 0.224D-05-0.228D-07-0.721D-06 0.111D-04
 Coeff-Com:  0.110D-04-0.253D-03-0.566D-03 0.976D-03 0.533D-02 0.251D-02
 Coeff-Com: -0.200D-01-0.336D-01 0.113D-01 0.254D+00 0.469D+00 0.717D-01
 Coeff-Com: -0.130D+01 0.154D+01
 Coeff:      0.691D-07 0.204D-06 0.224D-05-0.228D-07-0.721D-06 0.111D-04
 Coeff:      0.110D-04-0.253D-03-0.566D-03 0.976D-03 0.533D-02 0.251D-02
 Coeff:     -0.200D-01-0.336D-01 0.113D-01 0.254D+00 0.469D+00 0.717D-01
 Coeff:     -0.130D+01 0.154D+01
 Gap=     0.294 Goal=   None    Shift=    0.000
 RMSDP=4.14D-08 MaxDP=2.62D-06 DE=-7.15D-10 OVMax= 2.77D-07

 Cycle  23  Pass 1  IDiag  1:
 RMSU=  2.62D-08    CP:  1.00D+00  2.07D+00
 E= -3484.14244172736     Delta-E=       -0.000000000218 Rises=F Damp=F
 DIIS: error= 3.17D-07 at cycle  23 NSaved=  20.
 NSaved=20 IEnMin=14 EnMin= -3484.14244172746     IErMin=14 ErrMin= 5.71D-08
 ErrMax= 3.17D-07  0.00D+00 EMaxC= 1.00D-01 BMatC= 2.25D-11 BMatP= 2.68D-12
 IDIUse=1 WtCom= 1.00D+00 WtEn= 0.00D+00
 Coeff-Com:  0.240D-07 0.153D-05 0.406D-06 0.104D-05 0.840D-05 0.713D-05
 Coeff-Com: -0.178D-03-0.404D-03 0.582D-03 0.370D-02 0.208D-02-0.135D-01
 Coeff-Com: -0.238D-01 0.616D-02 0.180D+00 0.335D+00 0.218D+00-0.103D+01
 Coeff-Com:  0.341D+00 0.984D+00
 Coeff:      0.240D-07 0.153D-05 0.406D-06 0.104D-05 0.840D-05 0.713D-05
 Coeff:     -0.178D-03-0.404D-03 0.582D-03 0.370D-02 0.208D-02-0.135D-01
 Coeff:     -0.238D-01 0.616D-02 0.180D+00 0.335D+00 0.218D+00-0.103D+01
 Coeff:      0.341D+00 0.984D+00
 Gap=     0.294 Goal=   None    Shift=    0.000
 RMSDP=3.56D-08 MaxDP=2.82D-06 DE=-2.18D-10 OVMax= 1.64D-07

 Cycle  24  Pass 1  IDiag  1:
 RMSU=  2.00D-08    CP:  1.00D+00  2.82D+00  1.71D+00
 E= -3484.14244172605     Delta-E=        0.000000001310 Rises=F Damp=F
 DIIS: error= 3.15D-07 at cycle  24 NSaved=  20.
 NSaved=20 IEnMin=13 EnMin= -3484.14244172746     IErMin=13 ErrMin= 5.71D-08
 ErrMax= 3.15D-07  0.00D+00 EMaxC= 1.00D-01 BMatC= 2.01D-11 BMatP= 2.68D-12
 IDIUse=1 WtCom= 1.00D+00 WtEn= 0.00D+00
 Coeff-Com:  0.143D-05 0.348D-06 0.130D-05 0.817D-05 0.463D-05-0.173D-03
 Coeff-Com: -0.374D-03 0.615D-03 0.354D-02 0.178D-02-0.133D-01-0.226D-01
 Coeff-Com:  0.825D-02 0.177D+00 0.319D+00 0.227D+00-0.903D+00 0.190D+00
 Coeff-Com:  0.720D+00 0.291D+00
 Coeff:      0.143D-05 0.348D-06 0.130D-05 0.817D-05 0.463D-05-0.173D-03
 Coeff:     -0.374D-03 0.615D-03 0.354D-02 0.178D-02-0.133D-01-0.226D-01
 Coeff:      0.825D-02 0.177D+00 0.319D+00 0.227D+00-0.903D+00 0.190D+00
 Coeff:      0.720D+00 0.291D+00
 Gap=     0.294 Goal=   None    Shift=    0.000
 RMSDP=1.08D-08 MaxDP=9.14D-07 DE= 1.31D-09 OVMax= 1.73D-08

 Cycle  25  Pass 1  IDiag  1:
 RMSU=  6.07D-09    CP:  1.00D+00  2.91D+00  1.96D+00  1.28D+00
 E= -3484.14244172601     Delta-E=        0.000000000033 Rises=F Damp=F
 DIIS: error= 3.31D-07 at cycle  25 NSaved=  20.
 NSaved=20 IEnMin=12 EnMin= -3484.14244172746     IErMin=12 ErrMin= 5.71D-08
 ErrMax= 3.31D-07  0.00D+00 EMaxC= 1.00D-01 BMatC= 2.00D-11 BMatP= 2.68D-12
 IDIUse=1 WtCom= 1.00D+00 WtEn= 0.00D+00
 Coeff-Com: -0.225D-05-0.380D-05 0.834D-05 0.321D-04-0.416D-04-0.154D-03
 Coeff-Com:  0.188D-03 0.153D-02 0.512D-04-0.798D-02-0.107D-01 0.148D-01
 Coeff-Com:  0.146D+00 0.258D+00 0.294D+00-0.918D+00 0.168D+00 0.754D+00
 Coeff-Com:  0.473D+00-0.174D+00
 Coeff:     -0.225D-05-0.380D-05 0.834D-05 0.321D-04-0.416D-04-0.154D-03
 Coeff:      0.188D-03 0.153D-02 0.512D-04-0.798D-02-0.107D-01 0.148D-01
 Coeff:      0.146D+00 0.258D+00 0.294D+00-0.918D+00 0.168D+00 0.754D+00
 Coeff:      0.473D+00-0.174D+00
 Gap=     0.294 Goal=   None    Shift=    0.000
 RMSDP=4.25D-09 MaxDP=4.25D-07 DE= 3.27D-11 OVMax= 3.51D-08

 Error on total polarization charges =  0.06107
 SCF Done:  E(RwB97XD) =  -3484.14244173     A.U. after   25 cycles
            NFock= 25  Conv=0.42D-08     -V/T= 2.0274
 KE= 3.391244633315D+03 PE=-2.613061358783D+04 EE= 1.027083091844D+04
 SMD-CDS (non-electrostatic) energy       (kcal/mol) =     -10.94
 (included in total energy above)
 Leave Link  502 at Fri Mar  1 19:02:34 2024, MaxMem=  2147483648 cpu:    109411.2
 (Enter /cluster/apps/gaussian/g09/l601.exe)
 Copying SCF densities to generalized density rwf, IOpCl= 0 IROHF=0.

 **********************************************************************

            Population analysis using the SCF density.

 **********************************************************************

 Orbital symmetries:
       Occupied  (A) (A) (A) (A) (A) (A) (A) (A) (A) (A) (A) (A)
                 (A) (A) (A) (A) (A) (A) (A) (A) (A) (A) (A) (A)
                 (A) (A) (A) (A) (A) (A) (A) (A) (A) (A) (A) (A)
                 (A) (A) (A) (A) (A) (A) (A) (A) (A) (A) (A) (A)
                 (A) (A) (A) (A) (A) (A) (A) (A) (A) (A) (A) (A)
                 (A) (A) (A) (A) (A) (A) (A) (A) (A) (A) (A) (A)
                 (A) (A) (A) (A) (A) (A) (A) (A) (A) (A) (A) (A)
                 (A) (A) (A) (A) (A) (A) (A) (A) (A) (A) (A) (A)
                 (A) (A) (A) (A) (A) (A) (A) (A) (A) (A) (A) (A)
                 (A) (A) (A) (A) (A) (A) (A) (A) (A) (A) (A) (A)
                 (A) (A) (A) (A) (A) (A) (A) (A) (A) (A) (A) (A)
                 (A) (A) (A) (A) (A) (A) (A) (A) (A) (A) (A) (A)
                 (A) (A) (A) (A) (A) (A) (A) (A) (A) (A) (A) (A)
                 (A) (A) (A) (A) (A) (A) (A) (A) (A) (A) (A) (A)
                 (A) (A) (A) (A) (A) (A) (A) (A) (A) (A) (A) (A)
                 (A) (A) (A) (A) (A) (A) (A) (A) (A) (A) (A) (A)
                 (A) (A) (A) (A) (A) (A) (A) (A) (A) (A) (A) (A)
       Virtual   (A) (A) (A) (A) (A) (A) (A) (A) (A) (A) (A) (A)
                 (A) (A) (A) (A) (A) (A) (A) (A) (A) (A) (A) (A)
                 (A) (A) (A) (A) (A) (A) (A) (A) (A) (A) (A) (A)
                 (A) (A) (A) (A) (A) (A) (A) (A) (A) (A) (A) (A)
                 (A) (A) (A) (A) (A) (A) (A) (A) (A) (A) (A) (A)
                 (A) (A) (A) (A) (A) (A) (A) (A) (A) (A) (A) (A)
                 (A) (A) (A) (A) (A) (A) (A) (A) (A) (A) (A) (A)
                 (A) (A) (A) (A) (A) (A) (A) (A) (A) (A) (A) (A)
                 (A) (A) (A) (A) (A) (A) (A) (A) (A) (A) (A) (A)
                 (A) (A) (A) (A) (A) (A) (A) (A) (A) (A) (A) (A)
                 (A) (A) (A) (A) (A) (A) (A) (A) (A) (A) (A) (A)
                 (A) (A) (A) (A) (A) (A) (A) (A) (A) (A) (A) (A)
                 (A) (A) (A) (A) (A) (A) (A) (A) (A) (A) (A) (A)
                 (A) (A) (A) (A) (A) (A) (A) (A) (A) (A) (A) (A)
                 (A) (A) (A) (A) (A) (A) (A) (A) (A) (A) (A) (A)
                 (A) (A) (A) (A) (A) (A) (A) (A) (A) (A) (A) (A)
                 (A) (A) (A) (A) (A) (A) (A) (A) (A) (A) (A) (A)
                 (A) (A) (A) (A) (A) (A) (A) (A) (A) (A) (A) (A)
                 (A) (A) (A) (A) (A) (A) (A) (A) (A) (A) (A) (A)
                 (A) (A) (A) (A) (A) (A) (A) (A) (A) (A) (A) (A)
                 (A) (A) (A) (A) (A) (A) (A) (A) (A) (A) (A) (A)
                 (A) (A) (A) (A) (A) (A) (A) (A) (A) (A) (A) (A)
                 (A) (A) (A) (A) (A) (A) (A) (A) (A) (A) (A) (A)
                 (A) (A) (A) (A) (A) (A) (A) (A) (A) (A) (A) (A)
                 (A) (A) (A) (A) (A) (A) (A) (A) (A) (A) (A) (A)
                 (A) (A) (A) (A) (A) (A) (A) (A) (A) (A) (A) (A)
                 (A) (A) (A) (A) (A) (A) (A) (A) (A) (A) (A) (A)
                 (A) (A) (A) (A) (A) (A) (A) (A) (A) (A) (A) (A)
                 (A) (A) (A) (A) (A) (A) (A) (A) (A) (A) (A) (A)
                 (A) (A) (A) (A) (A) (A) (A) (A) (A) (A) (A) (A)
                 (A) (A) (A) (A) (A) (A) (A) (A) (A) (A) (A) (A)
                 (A) (A) (A) (A) (A) (A) (A) (A) (A) (A) (A) (A)
                 (A) (A) (A) (A) (A) (A) (A) (A) (A) (A) (A) (A)
                 (A) (A) (A) (A) (A) (A) (A) (A) (A) (A) (A) (A)
                 (A) (A) (A) (A) (A) (A) (A) (A) (A) (A) (A) (A)
                 (A) (A) (A) (A) (A) (A) (A) (A) (A) (A) (A) (A)
                 (A) (A) (A) (A) (A) (A) (A) (A) (A) (A) (A) (A)
                 (A) (A) (A) (A) (A) (A) (A) (A) (A) (A) (A) (A)
                 (A) (A) (A) (A) (A) (A) (A) (A) (A) (A) (A) (A)
                 (A) (A) (A) (A) (A) (A) (A) (A) (A) (A) (A) (A)
                 (A) (A) (A) (A) (A) (A) (A) (A) (A) (A) (A) (A)
                 (A) (A) (A) (A) (A) (A) (A) (A) (A) (A) (A) (A)
                 (A) (A) (A) (A) (A) (A) (A) (A) (A) (A) (A) (A)
                 (A) (A) (A) (A) (A) (A) (A) (A) (A) (A) (A) (A)
                 (A) (A) (A) (A) (A) (A) (A) (A) (A) (A) (A) (A)
                 (A) (A) (A) (A) (A) (A) (A) (A) (A) (A) (A) (A)
                 (A) (A) (A) (A) (A) (A) (A) (A) (A) (A) (A) (A)
                 (A) (A) (A) (A) (A) (A) (A) (A) (A) (A) (A) (A)
                 (A) (A) (A) (A) (A) (A) (A) (A) (A) (A) (A) (A)
                 (A) (A) (A) (A) (A) (A) (A) (A) (A) (A) (A) (A)
                 (A) (A) (A) (A) (A) (A) (A) (A) (A) (A) (A) (A)
                 (A) (A) (A) (A) (A) (A) (A) (A) (A) (A) (A) (A)
                 (A) (A) (A) (A) (A) (A) (A) (A) (A) (A) (A) (A)
                 (A) (A) (A) (A) (A) (A) (A) (A) (A) (A) (A) (A)
                 (A) (A) (A) (A) (A) (A) (A) (A) (A) (A) (A) (A)
                 (A) (A) (A) (A) (A) (A) (A) (A) (A) (A) (A) (A)
                 (A) (A) (A) (A) (A) (A) (A) (A) (A) (A) (A) (A)
                 (A) (A) (A) (A) (A) (A) (A) (A) (A) (A) (A) (A)
                 (A) (A) (A) (A) (A) (A) (A) (A) (A) (A) (A) (A)
                 (A) (A) (A) (A) (A) (A) (A) (A) (A) (A) (A) (A)
                 (A) (A) (A) (A) (A) (A) (A) (A) (A) (A) (A) (A)
                 (A) (A) (A) (A) (A) (A) (A) (A) (A) (A) (A) (A)
                 (A) (A) (A) (A) (A) (A) (A) (A) (A) (A) (A) (A)
                 (A) (A) (A) (A) (A) (A) (A) (A) (A) (A) (A) (A)
                 (A) (A) (A) (A) (A) (A) (A) (A) (A) (A) (A) (A)
                 (A) (A) (A) (A) (A) (A) (A) (A) (A) (A) (A) (A)
                 (A) (A) (A) (A) (A) (A) (A) (A) (A) (A) (A) (A)
                 (A) (A) (A) (A) (A) (A) (A) (A) (A) (A) (A) (A)
                 (A) (A) (A) (A) (A) (A) (A) (A) (A) (A) (A) (A)
                 (A) (A) (A) (A) (A) (A) (A) (A) (A) (A) (A) (A)
                 (A) (A) (A) (A) (A) (A) (A) (A) (A) (A) (A) (A)
                 (A) (A) (A) (A) (A) (A) (A) (A) (A) (A) (A) (A)
                 (A) (A) (A) (A) (A) (A) (A) (A) (A) (A) (A) (A)
                 (A) (A) (A) (A) (A) (A) (A) (A) (A) (A) (A) (A)
                 (A) (A) (A) (A) (A) (A) (A) (A) (A) (A) (A) (A)
                 (A) (A) (A) (A) (A) (A) (A) (A) (A) (A) (A) (A)
                 (A) (A) (A) (A) (A) (A) (A) (A) (A) (A) (A) (A)
                 (A) (A) (A) (A) (A) (A) (A) (A) (A) (A) (A) (A)
                 (A) (A) (A) (A) (A) (A) (A) (A) (A) (A) (A) (A)
                 (A) (A) (A) (A) (A) (A) (A) (A) (A) (A) (A) (A)
                 (A) (A) (A) (A) (A) (A) (A) (A) (A) (A) (A) (A)
                 (A) (A) (A) (A) (A) (A) (A) (A) (A) (A) (A) (A)
                 (A) (A) (A) (A) (A) (A) (A) (A) (A) (A) (A) (A)
                 (A) (A) (A) (A) (A) (A) (A) (A) (A) (A) (A) (A)
                 (A) (A) (A) (A) (A) (A) (A) (A) (A) (A) (A) (A)
                 (A) (A) (A) (A) (A) (A) (A) (A) (A) (A) (A) (A)
                 (A) (A) (A) (A) (A) (A) (A) (A) (A) (A) (A) (A)
                 (A) (A) (A) (A) (A) (A) (A) (A) (A) (A) (A) (A)
                 (A) (A) (A) (A) (A) (A) (A) (A) (A) (A) (A) (A)
                 (A) (A) (A) (A) (A) (A) (A) (A) (A) (A) (A) (A)
                 (A) (A) (A) (A) (A) (A) (A) (A) (A) (A) (A) (A)
                 (A) (A) (A) (A) (A) (A) (A) (A) (A) (A) (A) (A)
                 (A) (A) (A) (A) (A) (A) (A) (A) (A) (A) (A) (A)
                 (A) (A) (A) (A) (A) (A) (A) (A) (A) (A) (A) (A)
                 (A) (A) (A) (A) (A) (A) (A) (A) (A) (A) (A) (A)
                 (A) (A) (A) (A) (A) (A) (A) (A) (A) (A) (A) (A)
                 (A) (A) (A) (A) (A) (A) (A) (A) (A) (A) (A) (A)
                 (A) (A) (A) (A) (A) (A) (A) (A) (A) (A) (A) (A)
                 (A) (A) (A) (A) (A) (A) (A) (A) (A) (A) (A) (A)
                 (A) (A) (A) (A) (A) (A) (A) (A) (A) (A) (A) (A)
                 (A) (A) (A) (A) (A) (A) (A) (A) (A) (A) (A) (A)
                 (A) (A) (A) (A) (A) (A) (A) (A) (A) (A) (A) (A)
                 (A) (A) (A) (A) (A) (A) (A) (A) (A) (A) (A) (A)
                 (A) (A) (A) (A) (A) (A) (A) (A) (A) (A) (A) (A)
                 (A) (A) (A) (A) (A) (A) (A) (A) (A) (A) (A) (A)
                 (A) (A) (A) (A) (A) (A) (A) (A) (A) (A) (A) (A)
                 (A) (A) (A) (A) (A) (A) (A) (A) (A) (A) (A) (A)
                 (A) (A) (A) (A) (A) (A) (A) (A) (A) (A) (A) (A)
                 (A) (A) (A) (A) (A) (A) (A) (A) (A) (A) (A) (A)
                 (A) (A) (A) (A) (A) (A) (A) (A) (A) (A) (A) (A)
                 (A) (A) (A) (A) (A) (A) (A) (A) (A) (A) (A) (A)
                 (A) (A) (A) (A) (A) (A) (A) (A) (A) (A) (A) (A)
                 (A) (A) (A) (A) (A) (A) (A) (A) (A) (A) (A) (A)
                 (A) (A) (A) (A) (A) (A) (A) (A) (A) (A) (A) (A)
                 (A) (A) (A) (A) (A) (A) (A) (A) (A) (A) (A) (A)
                 (A) (A) (A) (A) (A) (A) (A) (A) (A) (A) (A) (A)
                 (A) (A) (A) (A) (A) (A) (A) (A) (A) (A) (A) (A)
                 (A) (A) (A) (A) (A) (A) (A) (A) (A) (A) (A) (A)
                 (A) (A) (A) (A) (A) (A) (A) (A) (A) (A) (A) (A)
                 (A) (A) (A) (A) (A) (A) (A) (A) (A) (A) (A) (A)
                 (A) (A) (A) (A) (A) (A) (A) (A) (A) (A) (A) (A)
                 (A) (A) (A) (A) (A) (A) (A) (A) (A) (A) (A) (A)
                 (A) (A) (A) (A) (A) (A) (A) (A) (A) (A) (A) (A)
                 (A) (A) (A) (A) (A) (A) (A) (A) (A) (A) (A) (A)
                 (A) (A) (A) (A) (A) (A) (A) (A) (A) (A) (A) (A)
                 (A) (A) (A) (A) (A) (A) (A) (A) (A) (A) (A) (A)
                 (A) (A) (A) (A) (A) (A) (A) (A) (A) (A) (A) (A)
                 (A) (A) (A) (A) (A) (A) (A) (A) (A) (A) (A) (A)
                 (A) (A) (A) (A) (A) (A) (A) (A) (A) (A) (A) (A)
                 (A) (A) (A) (A) (A) (A) (A) (A) (A) (A) (A) (A)
                 (A) (A) (A) (A) (A) (A) (A) (A) (A) (A) (A) (A)
                 (A) (A) (A) (A) (A) (A) (A) (A) (A) (A) (A) (A)
                 (A) (A) (A) (A) (A) (A) (A) (A) (A) (A) (A) (A)
                 (A) (A) (A) (A) (A) (A) (A) (A) (A) (A) (A) (A)
                 (A) (A) (A) (A) (A) (A) (A) (A) (A) (A) (A) (A)
                 (A) (A) (A) (A) (A) (A) (A) (A) (A) (A) (A) (A)
                 (A) (A) (A) (A) (A) (A) (A) (A) (A) (A) (A) (A)
[...]
 Alpha virt. eigenvalues --    3.17673   3.17913   3.18444   3.18905   3.19197
 Alpha virt. eigenvalues --    3.19701   3.20152   3.20432   3.20729   3.21060
 Alpha virt. eigenvalues --    3.21448   3.21573   3.22046   3.22476   3.22593
 Alpha virt. eigenvalues --    3.22824   3.22986   3.23496   3.24077   3.24810
 Alpha virt. eigenvalues --    3.25280   3.25493   3.26064   3.26287   3.26472
 Alpha virt. eigenvalues --    3.26555   3.26830   3.27009   3.27161   3.27404
 Alpha virt. eigenvalues --    3.27825   3.28250   3.28417   3.28793   3.29000
 Alpha virt. eigenvalues --    3.29315   3.29760   3.29981   3.30546   3.30762
 Alpha virt. eigenvalues --    3.30860   3.31323   3.31669   3.31884   3.32186
 Alpha virt. eigenvalues --    3.32822   3.32865   3.33018   3.33243   3.33731
 Alpha virt. eigenvalues --    3.34112   3.34485   3.34643   3.35267   3.35642
 Alpha virt. eigenvalues --    3.36093   3.36387   3.36519   3.36910   3.37058
 Alpha virt. eigenvalues --    3.37214   3.37960   3.38082   3.38329   3.38652
 Alpha virt. eigenvalues --    3.38906   3.39467   3.39532   3.39726   3.40321
 Alpha virt. eigenvalues --    3.40460   3.40516   3.40987   3.41145   3.41291
 Alpha virt. eigenvalues --    3.41927   3.41954   3.42341   3.42854   3.42931
 Alpha virt. eigenvalues --    3.43313   3.43423   3.43894   3.44623   3.44743
 Alpha virt. eigenvalues --    3.44862   3.45128   3.45542   3.46257   3.46435
 Alpha virt. eigenvalues --    3.46542   3.46753   3.46824   3.47323   3.47503
 Alpha virt. eigenvalues --    3.47732   3.48363   3.48672   3.48870   3.49538
 Alpha virt. eigenvalues --    3.49790   3.49872   3.50819   3.51186   3.51223
 Alpha virt. eigenvalues --    3.51710   3.51904   3.52125   3.52588   3.53138
 Alpha virt. eigenvalues --    3.53344   3.53427   3.53974   3.54359   3.54586
 Alpha virt. eigenvalues --    3.54870   3.55189   3.55578   3.55844   3.56097
 Alpha virt. eigenvalues --    3.56376   3.56639   3.56833   3.56871   3.57095
 Alpha virt. eigenvalues --    3.57767   3.57966   3.58129   3.58382   3.58701
 Alpha virt. eigenvalues --    3.58874   3.59196   3.59591   3.60020   3.60513
 Alpha virt. eigenvalues --    3.60957   3.61110   3.61331   3.61672   3.62621
 Alpha virt. eigenvalues --    3.62790   3.63156   3.63701   3.63985   3.64044
 Alpha virt. eigenvalues --    3.64275   3.64612   3.64782   3.65167   3.65579
 Alpha virt. eigenvalues --    3.65771   3.66156   3.66282   3.66343   3.66959
 Alpha virt. eigenvalues --    3.67517   3.67731   3.67976   3.68163   3.68480
 Alpha virt. eigenvalues --    3.68688   3.69645   3.70014   3.70248   3.70447
 Alpha virt. eigenvalues --    3.71137   3.71285   3.71335   3.72282   3.72431
 Alpha virt. eigenvalues --    3.72611   3.72918   3.73092   3.73349   3.73697
 Alpha virt. eigenvalues --    3.74370   3.74766   3.74953   3.75391   3.75694
 Alpha virt. eigenvalues --    3.75824   3.76099   3.76352   3.76605   3.77005
 Alpha virt. eigenvalues --    3.77251   3.77374   3.77665   3.78073   3.78348
 Alpha virt. eigenvalues --    3.78844   3.79417   3.79799   3.80206   3.80728
 Alpha virt. eigenvalues --    3.81039   3.82174   3.82290   3.82549   3.82613
 Alpha virt. eigenvalues --    3.83036   3.83715   3.83819   3.84404   3.84556
 Alpha virt. eigenvalues --    3.84880   3.85606   3.86038   3.86355   3.86680
 Alpha virt. eigenvalues --    3.86835   3.87031   3.88120   3.88700   3.89402
 Alpha virt. eigenvalues --    3.89863   3.90365   3.90590   3.91143   3.91905
 Alpha virt. eigenvalues --    3.92561   3.92738   3.93330   3.94280   3.94459
 Alpha virt. eigenvalues --    3.94985   3.96074   3.96229   3.96495   3.96765
 Alpha virt. eigenvalues --    3.97559   3.97926   3.98899   3.99125   3.99500
 Alpha virt. eigenvalues --    3.99984   4.00428   4.00756   4.01086   4.01290
 Alpha virt. eigenvalues --    4.01785   4.02412   4.02573   4.02855   4.03319
 Alpha virt. eigenvalues --    4.04131   4.04678   4.05387   4.05815   4.06792
 Alpha virt. eigenvalues --    4.07408   4.07653   4.08517   4.08901   4.10650
 Alpha virt. eigenvalues --    4.11327   4.12079   4.13250   4.13780   4.15594
 Alpha virt. eigenvalues --    4.16754   4.16915   4.17694   4.18174   4.19339
 Alpha virt. eigenvalues --    4.19429   4.19659   4.20061   4.20973   4.21587
 Alpha virt. eigenvalues --    4.21692   4.22038   4.22438   4.22540   4.22803
 Alpha virt. eigenvalues --    4.23230   4.23508   4.24291   4.24463   4.24656
 Alpha virt. eigenvalues --    4.24883   4.25074   4.25243   4.25493   4.25710
 Alpha virt. eigenvalues --    4.25841   4.26505   4.26570   4.26766   4.26867
 Alpha virt. eigenvalues --    4.27440   4.28283   4.28778   4.29298   4.29458
 Alpha virt. eigenvalues --    4.29636   4.30073   4.30399   4.30423   4.30876
 Alpha virt. eigenvalues --    4.31206   4.31423   4.31498   4.31969   4.32014
 Alpha virt. eigenvalues --    4.32385   4.32533   4.32817   4.33110   4.33416
 Alpha virt. eigenvalues --    4.33669   4.34065   4.34097   4.34307   4.34713
 Alpha virt. eigenvalues --    4.35168   4.36226   4.37083   4.37222   4.37321
 Alpha virt. eigenvalues --    4.38295   4.38504   4.38755   4.39326   4.39870
 Alpha virt. eigenvalues --    4.40390   4.40840   4.41077   4.41931   4.42260
 Alpha virt. eigenvalues --    4.43007   4.43143   4.43566   4.44534   4.44654
 Alpha virt. eigenvalues --    4.44801   4.45024   4.45863   4.46220   4.46389
 Alpha virt. eigenvalues --    4.46538   4.47017   4.47342   4.47876   4.48073
 Alpha virt. eigenvalues --    4.48347   4.48944   4.49423   4.50199   4.50385
 Alpha virt. eigenvalues --    4.51123   4.51570   4.52771   4.53501   4.55104
 Alpha virt. eigenvalues --    4.55931   4.56477   4.56672   4.57402   4.57859
 Alpha virt. eigenvalues --    4.58411   4.59161   4.59624   4.59765   4.60585
 Alpha virt. eigenvalues --    4.61613   4.62683   4.62971   4.63664   4.64127
 Alpha virt. eigenvalues --    4.64563   4.65211   4.66340   4.66476   4.66978
 Alpha virt. eigenvalues --    4.67471   4.67665   4.68482   4.69046   4.69194
 Alpha virt. eigenvalues --    4.69454   4.70711   4.71278   4.71631   4.72506
 Alpha virt. eigenvalues --    4.72841   4.74170   4.76077   4.78286   4.79425
 Alpha virt. eigenvalues --    4.79715   4.80037   4.80563   4.81186   4.82354
 Alpha virt. eigenvalues --    4.83564   4.83948   4.85366   4.88453   4.89348
 Alpha virt. eigenvalues --    4.91612   4.93647   4.94148   4.95205   4.95939
 Alpha virt. eigenvalues --    4.95983   4.96073   4.97087   4.97329   4.98317
 Alpha virt. eigenvalues --    4.98770   4.99309   4.99768   4.99997   5.00328
 Alpha virt. eigenvalues --    5.00791   5.02591   5.04470   5.06191   5.06356
 Alpha virt. eigenvalues --    5.07140   5.08596   5.08837   5.09802   5.10162
 Alpha virt. eigenvalues --    5.11309   5.12077   5.12993   5.14440   5.17059
 Alpha virt. eigenvalues --    5.18358   5.18516   5.18912   5.19294   5.20895
 Alpha virt. eigenvalues --    5.21442   5.23307   5.24247   5.24573   5.24784
 Alpha virt. eigenvalues --    5.25464   5.26122   5.26456   5.27481   5.27837
 Alpha virt. eigenvalues --    5.28754   5.29687   5.29795   5.30097   5.31538
 Alpha virt. eigenvalues --    5.33341   5.34116   5.36325   5.36744   5.37340
 Alpha virt. eigenvalues --    5.37944   5.38434   5.39132   5.39828   5.40920
 Alpha virt. eigenvalues --    5.41345   5.43080   5.45180   5.46114   5.49178
 Alpha virt. eigenvalues --    5.52741   5.57271   5.58788   5.60683   5.63128
 Alpha virt. eigenvalues --    5.63886   5.66742   5.68023   5.69775   5.72965
 Alpha virt. eigenvalues --    5.73979   5.75265   5.79136   5.87289   5.89429
 Alpha virt. eigenvalues --    5.90754   6.02158   6.05715   6.08131   6.14729
 Alpha virt. eigenvalues --    6.44405   6.47761   6.47837   6.49901   6.56891
 Alpha virt. eigenvalues --    6.65106   6.74361   6.81320   6.89243   6.89934
 Alpha virt. eigenvalues --    6.90790   6.93262   6.93871   6.94551   6.94565
 Alpha virt. eigenvalues --    6.94862   6.95122   6.95607   6.95985   6.96420
 Alpha virt. eigenvalues --    6.97014   7.00420   7.01453   7.04330   7.05717
 Alpha virt. eigenvalues --    7.08417   7.10509   7.13648   7.14407   7.18237
 Alpha virt. eigenvalues --    7.24031   7.27982   7.28125   7.29344   7.36173
 Alpha virt. eigenvalues --    7.38503   7.41670   7.48572   7.49298   7.52319
 Alpha virt. eigenvalues --    7.56495   7.62157   7.73926   7.76120   8.02565
 Alpha virt. eigenvalues --    8.09766   8.14263   8.17372   8.39236   8.42796
 Alpha virt. eigenvalues --    8.45305   8.49468   8.54668   8.64824   8.65014
 Alpha virt. eigenvalues --    8.78111   8.79598   8.83466   8.88212   8.90431
 Alpha virt. eigenvalues --    8.94345   9.00144   9.02434   9.09889   9.11599
 Alpha virt. eigenvalues --    9.17350   9.18786   9.41782   9.51235   9.61255
 Alpha virt. eigenvalues --    9.86021  10.93438  10.98864  11.37252  15.99728
 Alpha virt. eigenvalues --   22.16519  22.40989  22.48042  22.50066  22.52369
 Alpha virt. eigenvalues --   22.54073  22.58457  22.59223  22.59583  22.63722
 Alpha virt. eigenvalues --   22.70342  22.74828  22.76041  22.77030  22.77058
 Alpha virt. eigenvalues --   22.77490  22.79242  22.82127  22.86003  22.87952
 Alpha virt. eigenvalues --   22.88807  22.90570  22.91473  22.92261  22.92389
 Alpha virt. eigenvalues --   22.92788  22.93343  22.95417  23.00369  23.04213
 Alpha virt. eigenvalues --   23.05460  23.07853  23.14383  23.16014  23.17324
 Alpha virt. eigenvalues --   23.20014  23.23831  23.46779  23.80792  25.59405
 Alpha virt. eigenvalues --   32.78220  32.93873  43.81183  44.08726  44.35407
 Alpha virt. eigenvalues --   57.30239  57.48264  57.59219  57.69526 107.15765
          Condensed to atoms (all electrons):
 Mulliken charges:
               1
     1  Pd  -0.052142
     2  C   -0.126510
     3  C   -0.191973
     4  H    0.203576
     5  C   -0.305930
     6  H    0.140746
     7  C    0.399980
     8  C   -0.434784
     9  H    0.176251
    10  C    0.130346
    11  C    0.034123
    12  C    0.253733
    13  C    0.152908
    14  C    0.197073
    15  C    0.202400
    16  C   -0.055046
    17  N   -0.395295
    18  S    0.834724
    19  O   -0.520840
    20  O   -0.517210
    21  C   -0.182995
    22  Cl  -0.103381
    23  H    0.199135
    24  H    0.206005
    25  F   -0.207134
    26  F   -0.198178
    27  F   -0.202298
    28  F   -0.217023
    29  O   -0.303172
    30  C   -0.226801
    31  H    0.136689
    32  H    0.157759
    33  H    0.138403
    34  P    0.191130
    35  C    0.486098
    36  C    0.582584
    37  C   -0.441063
    38  C   -0.517900
    39  C   -0.499830
    40  C   -0.497927
    41  C   -0.452412
    42  C   -0.554157
    43  C   -0.593980
    44  H    0.191187
    45  H    0.195682
    46  C   -0.259968
    47  C    0.158561
    48  H    0.140085
    49  H    0.154338
    50  C    0.170481
    51  H    0.146183
    52  H    0.121370
    53  C    0.151317
    54  H    0.176940
    55  H    0.182714
    56  C    0.144652
    57  H    0.105098
    58  H    0.147946
    59  C    0.154750
    60  H    0.134409
    61  H    0.161767
    62  C    0.188978
    63  H    0.121301
    64  H    0.192796
    65  H    0.110761
    66  C   -0.165060
    67  H    0.113301
    68  C   -0.339328
    69  C   -0.367761
    70  H    0.086202
    71  C   -0.319515
    72  H    0.086802
    73  H    0.100042
    74  C   -0.330289
    75  C   -0.335544
    76  H    0.085476
    77  C   -0.358547
    78  H    0.086183
    79  H    0.085461
    80  H    0.108247
    81  H    0.108256
    82  C   -0.394897
    83  H    0.115224
    84  H    0.104947
    85  H    0.113587
    86  H    0.131216
    87  H    0.116907
    88  H    0.104716
    89  H    0.113577
    90  H    0.102806
    91  H    0.113242
    92  H    0.103361
    93  H    0.113879
    94  H    0.118745
    95  H    0.122715
    96  H    0.136167
    97  H    0.122857
 Sum of Mulliken charges =   0.00000
 Mulliken charges with hydrogens summed into heavy atoms:
               1
     1  Pd  -0.052142
     2  C   -0.126510
     3  C    0.011603
     5  C   -0.165184
     7  C    0.399980
     8  C   -0.258533
    10  C    0.130346
    11  C    0.034123
    12  C    0.253733
    13  C    0.152908
    14  C    0.197073
    15  C    0.202400
    16  C   -0.055046
    17  N   -0.395295
    18  S    0.834724
    19  O   -0.520840
    20  O   -0.517210
    21  C    0.222145
    22  Cl  -0.103381
    25  F   -0.207134
    26  F   -0.198178
    27  F   -0.202298
    28  F   -0.217023
    29  O   -0.303172
    30  C    0.206050
    34  P    0.191130
    35  C    0.486098
    36  C    0.582584
    37  C   -0.054194
    38  C   -0.223478
    39  C   -0.232278
    40  C   -0.138274
    41  C   -0.199368
    42  C   -0.257981
    43  C   -0.279883
    46  C   -0.035906
    47  C    0.244763
    50  C    0.257282
    53  C    0.251359
    56  C    0.230128
    59  C    0.240933
    62  C    0.274439
    66  C    0.051443
    68  C   -0.119156
    69  C   -0.122958
    71  C   -0.097893
    74  C   -0.113906
    75  C   -0.118941
    77  C   -0.125923
    82  C   -0.013158
 Electronic spatial extent (au):  <R**2>=          30473.4681
 Charge=              0.0000 electrons
 Dipole moment (field-independent basis, Debye):
    X=            -10.8002    Y=              8.0869    Z=              2.1617  Tot=             13.6644
 Quadrupole moment (field-independent basis, Debye-Ang):
   XX=           -319.8051   YY=           -351.8234   ZZ=           -326.6415
   XY=             13.7688   XZ=             20.3474   YZ=             -4.0293
 Traceless Quadrupole moment (field-independent basis, Debye-Ang):
   XX=             12.9516   YY=            -19.0667   ZZ=              6.1151
   XY=             13.7688   XZ=             20.3474   YZ=             -4.0293
 Octapole moment (field-independent basis, Debye-Ang**2):
  XXX=             24.9569  YYY=             66.6241  ZZZ=             -3.4579  XYY=            -32.3834
  XXY=             40.6135  XXZ=            121.7442  XZZ=              7.7853  YZZ=            -13.4694
  YYZ=             19.4924  XYZ=            -11.7292
 Hexadecapole moment (field-independent basis, Debye-Ang**3):
 XXXX=         -19255.9948 YYYY=         -12242.5969 ZZZZ=          -8794.9534 XXXY=            396.6130
 XXXZ=            505.9298 YYYX=            267.6359 YYYZ=            -59.0573 ZZZX=            -62.2571
 ZZZY=             -3.2761 XXYY=          -5218.6219 XXZZ=          -4603.5691 YYZZ=          -3332.2385
 XXYZ=            169.6063 YYXZ=            141.8199 ZZXY=             29.1450
 N-N= 8.984395594346D+03 E-N=-2.613061358631D+04  KE= 3.391244633315D+03
 No NMR shielding tensors so no spin-rotation constants.
 Leave Link  601 at Fri Mar  1 19:02:36 2024, MaxMem=  2147483648 cpu:        17.2
 (Enter /cluster/apps/gaussian/g09/l9999.exe)
 1\1\GINC-EU-G5-024-1\SP\RwB97XD\GenECP\C38H47Cl1F4N1O3P1Pd1S1\SROEDIGE
 R\01-Mar-2024\0\\#p sp geom=allcheck scrf(solvent=dichloromethane,smd)
  wb97xd genecp temperature=313 integral(grid=ultrafine)\\title\\0,1\Pd
 ,0,-0.1974341653,-0.3442203694,0.0070583238\C,0,-0.890350034,1.3625476
 938,-0.6861560437\C,0,-0.1000131318,2.1348651588,-1.5454559968\H,0,0.9
 131078341,1.8129201139,-1.7850454017\C,0,-0.5776502013,3.2994217492,-2
 .1290134958\H,0,0.0437388233,3.8988472343,-2.7971752207\C,0,-1.8878703
 238,3.7158679108,-1.8700540258\C,0,-2.6978435616,2.9401849805,-1.04361
 91966\H,0,-3.7286347089,3.235263251,-0.8625148639\C,0,-2.2197341215,1.
 7578944007,-0.4429280437\C,0,-3.1599947433,0.9515899585,0.3687457916\C
 ,0,-4.1392189765,1.5391358882,1.1759881195\C,0,-5.0688917475,0.7813474
 677,1.881465536\C,0,-5.0177797346,-0.6067755776,1.8088116584\C,0,-4.02
 17928647,-1.2205674096,1.0569354309\C,0,-3.1025333383,-0.464027483,0.3
 19248763\N,0,-2.0452385795,-1.0908261765,-0.3234679332\S,0,-2.23141108
 44,-2.1884986843,-1.5013344261\O,0,-1.2104098922,-3.2206014679,-1.3339
 86819\O,0,-3.6361860069,-2.5349156196,-1.689531891\C,0,-1.8113448844,-
 1.32046718,-3.0437983434\Cl,0,-0.0831609904,-1.0373972911,-3.272040945
 1\H,0,-2.3463935203,-0.3619804722,-3.045701439\H,0,-2.1740945512,-1.97
 63047809,-3.8459670194\F,0,-3.9230157097,-2.5381075213,1.1036121862\F,
 0,-5.8754397155,-1.3341604624,2.504566721\F,0,-5.9863510711,1.37514622
 48,2.6311902583\F,0,-4.2175628077,2.8631889848,1.3174319969\O,0,-2.288
 0183067,4.8591007024,-2.4661987186\C,0,-3.5915074268,5.3148064552,-2.2
 367306457\H,0,-4.3490696811,4.5994228559,-2.6034559503\H,0,-3.69812992
 ,6.2565482686,-2.790040562\H,0,-3.7781431567,5.5057911113,-1.164999565
 \P,0,1.8496152897,0.2592934427,0.8052585709\C,0,2.4938642673,-1.504762
 2484,0.8977496896\C,0,1.6515222442,1.1142903506,2.4556935922\C,0,3.006
 5154216,1.2408469159,-0.2335272386\C,0,3.0292551967,-1.861331523,-0.50
 5939344\C,0,3.5625964189,-1.8240022685,1.9504818309\C,0,1.2559129462,-
 2.4005911438,1.1568292864\C,0,2.9393192354,1.3827945656,3.2513858544\C
 ,0,0.9736889433,2.4681230663,2.1487971252\C,0,0.6906792234,0.278866476
 ,3.3241880322\H,0,2.8782741047,0.8156606836,-1.2427410576\H,0,2.568222
 0248,2.2501177598,-0.2897889461\C,0,4.4921547377,1.321657353,0.1024978
 22\C,0,3.40588998,-3.3444427177,-0.5698720117\H,0,3.9163133966,-1.2542
 351518,-0.7436246491\H,0,2.2605011572,-1.635719082,-1.2654358496\C,0,3
 .9450139036,-3.308157778,1.8719912052\H,0,4.4536824699,-1.1940912032,1
 .7983595492\H,0,3.1794361979,-1.6000622976,2.9585701197\C,0,1.63736542
 13,-3.8840911533,1.098843074\H,0,0.4771627789,-2.2815465517,0.36077437
 12\H,0,0.7898980225,-2.1701807406,2.1248048017\C,0,2.6031863686,2.1164
 921207,4.5573951658\H,0,3.6273624245,2.0051342031,2.6609259375\H,0,3.4
 651869031,0.4430209263,3.4754897935\C,0,0.6480915426,3.2057773718,3.44
 99610576\H,0,1.6377522287,3.0941292101,1.5295524838\H,0,0.0554276194,2
 .3028911014,1.5629405888\C,0,0.359784507,1.0219268966,4.6206069172\H,0
 ,1.1502716468,-0.6919210402,3.5705057479\H,0,-0.2334346106,0.069004541
 5,2.7570325481\H,0,4.8991865802,0.3153937705,0.2926239679\C,0,5.293093
 8584,1.9793057149,-1.0148069978\H,0,4.6447859635,1.8856334556,1.034859
 9519\C,0,4.4854984202,-3.6315187564,0.4766698107\C,0,2.1705627023,-4.2
 039569676,-0.2974137176\H,0,3.7955754249,-3.5619998252,-1.577727467\C,
 0,2.7090069791,-4.1671105118,2.1537653438\H,0,4.7204847729,-3.51354921
 9,2.6282799044\H,0,0.7342284711,-4.4812309104,1.2988021424\C,0,1.93801
 16827,3.456254551,4.2338352575\C,0,1.6521799543,1.2668275763,5.4027209
 942\H,0,3.5397972655,2.2902374433,5.1125892998\C,0,-0.3096332696,2.356
 4015104,4.2874593293\H,0,0.1698515758,4.1661115461,3.1976206847\H,0,-0
 .3263520295,0.3992929562,5.2175744096\H,0,4.8738001239,2.980202375,-1.
 2192459747\H,0,5.1535988539,1.4016619608,-1.9457443604\C,0,6.774624335
 1,2.094701892,-0.6971055667\H,0,4.7904299849,-4.6900376554,0.426818991
 2\H,0,5.3870932601,-3.029308431,0.269877393\H,0,2.4291313613,-5.273454
 2362,-0.3677440135\H,0,1.3861836889,-4.0067329485,-1.0460417237\H,0,2.
 9786988628,-5.2361796722,2.1366666855\H,0,2.3185921707,-3.9522319768,3
 .1632098849\H,0,1.7179148122,4.0044054507,5.1652011121\H,0,2.623813878
 3,4.0887542378,3.64460487\H,0,1.4312236969,1.7798064222,6.3536235173\H
 ,0,2.1275002131,0.3049928531,5.6610018938\H,0,-0.5792533361,2.88848259
 04,5.2150088433\H,0,-1.2461265517,2.1830433856,3.7312033638\H,0,7.2237
 813886,1.1041448056,-0.5205529836\H,0,7.3291066718,2.5685176435,-1.520
 6740685\H,0,6.9438293021,2.69882774,0.208609665\\Version=ES64L-G09RevD
 .01\State=1-A\HF=-3484.1424417\RMSD=4.249e-09\Dipole=4.7697779,2.23827
 13,1.0680166\Quadrupole=-0.2648359,-5.7153154,5.9801513,-17.8190638,8.
 134564,-9.0469953\PG=C01 [X(C38H47Cl1F4N1O3P1Pd1S1)]\\@


 Until you make peace with who you are,
 you'll never be content with what you have.
                           -- Doris Mortman
 Job cpu time:       1 days  6 hours 31 minutes 17.1 seconds.
 File lengths (MBytes):  RWF=   2428 Int=      0 D2E=      0 Chk=    153 Scr=      1
 Normal termination of Gaussian 09 at Fri Mar  1 19:02:37 2024.
