 Entering Gaussian System, Link 0=g09
 Input=ptbu3_step11-sp.com
 Output=ptbu3_step11-sp.log
 Initial command:
 /cluster/apps/gaussian/g09/l1.exe "/scratch/264093214.tmpdir/Gau-28117.inp" -scrdir="/scratch/264093214.tmpdir/"
 Entering Link 1 = /cluster/apps/gaussian/g09/l1.exe PID=     28124.
  
 Copyright (c) 1988,1990,1992,1993,1995,1998,2003,2009,2013,
            Gaussian, Inc.  All Rights Reserved.
  
 This is part of the Gaussian(R) 09 program.  It is based on
 the Gaussian(R) 03 system (copyright 2003, Gaussian, Inc.),
 the Gaussian(R) 98 system (copyright 1998, Gaussian, Inc.),
 the Gaussian(R) 94 system (copyright 1995, Gaussian, Inc.),
 the Gaussian 92(TM) system (copyright 1992, Gaussian, Inc.),
 the Gaussian 90(TM) system (copyright 1990, Gaussian, Inc.),
 the Gaussian 88(TM) system (copyright 1988, Gaussian, Inc.),
 the Gaussian 86(TM) system (copyright 1986, Carnegie Mellon
 University), and the Gaussian 82(TM) system (copyright 1983,
 Carnegie Mellon University). Gaussian is a federally registered
 trademark of Gaussian, Inc.
  
 This software contains proprietary and confidential information,
 including trade secrets, belonging to Gaussian, Inc.
  
 This software is provided under written license and may be
 used, copied, transmitted, or stored only in accord with that
 written license.
  
 The following legend is applicable only to US Government
 contracts under FAR:
  
                    RESTRICTED RIGHTS LEGEND
  
 Use, reproduction and disclosure by the US Government is
 subject to restrictions as set forth in subparagraphs (a)
 and (c) of the Commercial Computer Software - Restricted
 Rights clause in FAR 52.227-19.
  
 Gaussian, Inc.
 340 Quinnipiac St., Bldg. 40, Wallingford CT 06492
  
  
 ---------------------------------------------------------------
 Warning -- This program may not be used in any manner that
 competes with the business of Gaussian, Inc. or will provide
 assistance to any competitor of Gaussian, Inc.  The licensee
 of this program is prohibited from giving any competitor of
 Gaussian, Inc. access to this program.  By using this program,
 the user acknowledges that Gaussian, Inc. is engaged in the
 business of creating and licensing software in the field of
 computational chemistry and represents and warrants to the
 licensee that it is not a competitor of Gaussian, Inc. and that
 it will not use this program in any manner prohibited above.
 ---------------------------------------------------------------
  

 Cite this work as:
 Gaussian 09, Revision D.01,
 M. J. Frisch, G. W. Trucks, H. B. Schlegel, G. E. Scuseria, 
 M. A. Robb, J. R. Cheeseman, G. Scalmani, V. Barone, B. Mennucci, 
 G. A. Petersson, H. Nakatsuji, M. Caricato, X. Li, H. P. Hratchian, 
 A. F. Izmaylov, J. Bloino, G. Zheng, J. L. Sonnenberg, M. Hada, 
 M. Ehara, K. Toyota, R. Fukuda, J. Hasegawa, M. Ishida, T. Nakajima, 
 Y. Honda, O. Kitao, H. Nakai, T. Vreven, J. A. Montgomery, Jr., 
 J. E. Peralta, F. Ogliaro, M. Bearpark, J. J. Heyd, E. Brothers, 
 K. N. Kudin, V. N. Staroverov, T. Keith, R. Kobayashi, J. Normand, 
 K. Raghavachari, A. Rendell, J. C. Burant, S. S. Iyengar, J. Tomasi, 
 M. Cossi, N. Rega, J. M. Millam, M. Klene, J. E. Knox, J. B. Cross, 
 V. Bakken, C. Adamo, J. Jaramillo, R. Gomperts, R. E. Stratmann, 
 O. Yazyev, A. J. Austin, R. Cammi, C. Pomelli, J. W. Ochterski, 
 R. L. Martin, K. Morokuma, V. G. Zakrzewski, G. A. Voth, 
 P. Salvador, J. J. Dannenberg, S. Dapprich, A. D. Daniels, 
 O. Farkas, J. B. Foresman, J. V. Ortiz, J. Cioslowski, 
 and D. J. Fox, Gaussian, Inc., Wallingford CT, 2013.
 
 ******************************************
 Gaussian 09:  ES64L-G09RevD.01 24-Apr-2013
                28-Nov-2023 
 ******************************************
 %nprocshared=8
 Will use up to    8 processors via shared memory.
 %mem=16GB
 %oldchk=ptbu3_step11.chk
 %chk=ptbu3_step11-sp.chk
 Copying data from "ptbu3_step11.chk" to current chk file "ptbu3_step11-sp.chk".
 ----------------------------------------------------------------------
 #p sp geom=allcheck scrf(solvent=dichloromethane,smd) wb97xd genecp te
 mperature=313 integral(grid=ultrafine)
 ----------------------------------------------------------------------
 1/29=7,38=1,112=313000/1;
 2/12=2,40=1/2;
 3/5=7,11=2,14=-4,16=1,17=8,25=1,30=1,70=32201,72=9,74=-58,75=-5/1,2,3;
 4//1;
 5/5=2,38=5,53=9/2;
 6/7=2,8=2,9=2,10=2,28=1/1;
 99/5=1,9=1/99;
 Leave Link    1 at Tue Nov 28 17:54:51 2023, MaxMem=  2147483648 cpu:         2.0
 (Enter /cluster/apps/gaussian/g09/l101.exe)
 Structure from the checkpoint file:  "ptbu3_step11-sp.chk"
 -----
 title
 -----
 Charge =  0 Multiplicity = 1
 Redundant internal coordinates found in file.
 Pd,0,-0.8257463079,-0.2927968815,0.2547374227
 P,0,-2.3791786293,0.2253684959,-1.3614064203
 C,0,-3.9338127326,1.1128761277,-0.6978797115
 C,0,-3.4987629352,2.4191433266,-0.0210709926
 H,0,-3.0026351243,3.1250231544,-0.6957157994
 H,0,-4.3966687885,2.919243478,0.3770465908
 H,0,-2.8328099738,2.2103313132,0.82815091
 C,0,-4.9901410682,1.4090986825,-1.7639278128
 H,0,-5.3278176685,0.5072521554,-2.2905340639
 H,0,-4.6390138023,2.1319765903,-2.512151787
 H,0,-5.8720853458,1.8544272182,-1.2744164242
 C,0,-4.5586680927,0.2728957514,0.4226040293
 H,0,-5.0277237551,-0.6523903699,0.0671231544
 H,0,-3.8239433015,0.0280226361,1.2051970112
 H,0,-5.3509247934,0.8742109349,0.8969558746
 C,0,-1.7945253329,1.0289764374,-2.9847792652
 C,0,-0.3331456912,0.6186516298,-3.2162532832
 H,0,-0.2044864644,-0.4554035332,-3.3848026279
 H,0,0.035219778,1.1409462922,-4.1142166915
 H,0,0.301579901,0.9078983417,-2.3669201108
 C,0,-2.6468314078,0.6426201671,-4.1961696088
 H,0,-2.2604697731,1.1737515416,-5.0816245925
 H,0,-2.6005623063,-0.4305885677,-4.4206317464
 H,0,-3.7015778038,0.9236844285,-4.0792908538
 C,0,-1.7957703394,2.5555933396,-2.8464934127
 H,0,-1.3372690075,2.9776897874,-3.755297813
 H,0,-2.8036702521,2.9824433343,-2.7654466136
 H,0,-1.1896433739,2.8885818116,-1.9930721182
 C,0,-2.8009556661,-1.6222349988,-1.6550952905
 C,0,-4.1525760129,-1.9111785678,-2.3051181127
 H,0,-4.2418738597,-1.4551590474,-3.3001750487
 H,0,-4.9991573221,-1.5720815562,-1.694864436
 H,0,-4.2608610294,-3.0013679077,-2.4311824749
 C,0,-2.7282255371,-2.2912928728,-0.2678231659
 H,0,-2.8824098494,-3.3768242873,-0.384897598
 H,0,-3.463232523,-1.9321637776,0.4564414718
 H,0,-1.720557321,-2.2278533079,0.2041988619
 C,0,-1.6954004517,-2.2795209245,-2.4901303662
 H,0,-1.8652875987,-3.3684166606,-2.486479248
 H,0,-1.6931510414,-1.9554029636,-3.538098572
 H,0,-0.6982343099,-2.10068981,-2.0601499518
 C,0,0.4879194383,1.1811678534,0.2057676069
 C,0,0.0661180964,2.5059692584,0.2658169432
 H,0,-0.9966603595,2.7314557634,0.2928562597
 C,0,0.9621558915,3.5762304252,0.3114473628
 H,0,0.5738622501,4.5941155833,0.3560369807
 C,0,2.3323093164,3.3140119619,0.3111439657
 C,0,2.7705474375,1.9884875271,0.2776855638
 H,0,3.8458472157,1.8180586165,0.3098477323
 C,0,1.8785962883,0.9097325874,0.2285275808
 C,0,2.4321004609,-0.4622594983,0.2703679676
 C,0,3.6380522914,-0.8047607893,-0.3491252983
 C,0,4.1866609985,-2.0789382643,-0.2356332056
 C,0,3.5150167376,-3.0546534052,0.4940915041
 C,0,2.2884242518,-2.7557998712,1.0776056382
 C,0,1.7457749086,-1.4684436463,0.990359207
 N,0,0.4694874156,-1.2197650436,1.4752308914
 S,0,0.0730564068,-1.3347008272,3.0460637364
 O,0,-1.2974454385,-1.827730173,3.1287166885
 O,0,1.1541412488,-1.9453556737,3.8121809097
 C,0,0.0377933778,0.3729589546,3.675296017
 Cl,0,-1.4065942832,1.2820463908,3.2241121161
 H,0,0.9336384325,0.8878612759,3.3039221374
 H,0,0.0666861764,0.2717213673,4.7679590504
 F,0,1.6175207213,-3.7300993911,1.667249513
 F,0,4.0165256351,-4.2751100328,0.577835409
 F,0,5.3339689964,-2.3681756188,-0.8310978227
 F,0,4.3114193966,0.0731067473,-1.0894516712
 O,0,3.2963000948,4.2576121358,0.3569125387
 C,0,2.9138648063,5.6012274141,0.4163075248
 H,0,3.8380815231,6.1920687408,0.4494102917
 H,0,2.3184249015,5.821135434,1.3206409439
 H,0,2.3304456556,5.9035624003,-0.471994767
 Recover connectivity data from disk.
 NAtoms=     73 NQM=       73 NQMF=       0 NMMI=      0 NMMIF=      0
                NMic=       0 NMicF=      0.
                    Isotopes and Nuclear Properties:
 (Nuclear quadrupole moments (NQMom) in fm**2, nuclear magnetic moments (NMagM)
  in nuclear magnetons)

  Atom         1           2           3           4           5           6           7           8           9          10
 IAtWgt=         106          31          12          12           1           1           1          12           1           1
 AtmWgt= 105.9032000  30.9737634  12.0000000  12.0000000   1.0078250   1.0078250   1.0078250  12.0000000   1.0078250   1.0078250
 NucSpn=           0           1           0           0           1           1           1           0           1           1
 AtZEff=-237.3600000 -12.9400000  -3.6000000  -3.6000000  -1.0000000  -1.0000000  -1.0000000  -3.6000000  -1.0000000  -1.0000000
 NQMom=    0.0000000   0.0000000   0.0000000   0.0000000   0.0000000   0.0000000   0.0000000   0.0000000   0.0000000   0.0000000
 NMagM=    0.0000000   1.1316000   0.0000000   0.0000000   2.7928460   2.7928460   2.7928460   0.0000000   2.7928460   2.7928460
 AtZNuc=  46.0000000  15.0000000   6.0000000   6.0000000   1.0000000   1.0000000   1.0000000   6.0000000   1.0000000   1.0000000

  Atom        11          12          13          14          15          16          17          18          19          20
 IAtWgt=           1          12           1           1           1          12          12           1           1           1
 AtmWgt=   1.0078250  12.0000000   1.0078250   1.0078250   1.0078250  12.0000000  12.0000000   1.0078250   1.0078250   1.0078250
 NucSpn=           1           0           1           1           1           0           0           1           1           1
 AtZEff=  -1.0000000  -3.6000000  -1.0000000  -1.0000000  -1.0000000  -3.6000000  -3.6000000  -1.0000000  -1.0000000  -1.0000000
 NQMom=    0.0000000   0.0000000   0.0000000   0.0000000   0.0000000   0.0000000   0.0000000   0.0000000   0.0000000   0.0000000
 NMagM=    2.7928460   0.0000000   2.7928460   2.7928460   2.7928460   0.0000000   0.0000000   2.7928460   2.7928460   2.7928460
 AtZNuc=   1.0000000   6.0000000   1.0000000   1.0000000   1.0000000   6.0000000   6.0000000   1.0000000   1.0000000   1.0000000

  Atom        21          22          23          24          25          26          27          28          29          30
 IAtWgt=          12           1           1           1          12           1           1           1          12          12
 AtmWgt=  12.0000000   1.0078250   1.0078250   1.0078250  12.0000000   1.0078250   1.0078250   1.0078250  12.0000000  12.0000000
 NucSpn=           0           1           1           1           0           1           1           1           0           0
 AtZEff=  -3.6000000  -1.0000000  -1.0000000  -1.0000000  -3.6000000  -1.0000000  -1.0000000  -1.0000000  -3.6000000  -3.6000000
 NQMom=    0.0000000   0.0000000   0.0000000   0.0000000   0.0000000   0.0000000   0.0000000   0.0000000   0.0000000   0.0000000
 NMagM=    0.0000000   2.7928460   2.7928460   2.7928460   0.0000000   2.7928460   2.7928460   2.7928460   0.0000000   0.0000000
 AtZNuc=   6.0000000   1.0000000   1.0000000   1.0000000   6.0000000   1.0000000   1.0000000   1.0000000   6.0000000   6.0000000

  Atom        31          32          33          34          35          36          37          38          39          40
 IAtWgt=           1           1           1          12           1           1           1          12           1           1
 AtmWgt=   1.0078250   1.0078250   1.0078250  12.0000000   1.0078250   1.0078250   1.0078250  12.0000000   1.0078250   1.0078250
 NucSpn=           1           1           1           0           1           1           1           0           1           1
 AtZEff=  -1.0000000  -1.0000000  -1.0000000  -3.6000000  -1.0000000  -1.0000000  -1.0000000  -3.6000000  -1.0000000  -1.0000000
 NQMom=    0.0000000   0.0000000   0.0000000   0.0000000   0.0000000   0.0000000   0.0000000   0.0000000   0.0000000   0.0000000
 NMagM=    2.7928460   2.7928460   2.7928460   0.0000000   2.7928460   2.7928460   2.7928460   0.0000000   2.7928460   2.7928460
 AtZNuc=   1.0000000   1.0000000   1.0000000   6.0000000   1.0000000   1.0000000   1.0000000   6.0000000   1.0000000   1.0000000

  Atom        41          42          43          44          45          46          47          48          49          50
 IAtWgt=           1          12          12           1          12           1          12          12           1          12
 AtmWgt=   1.0078250  12.0000000  12.0000000   1.0078250  12.0000000   1.0078250  12.0000000  12.0000000   1.0078250  12.0000000
 NucSpn=           1           0           0           1           0           1           0           0           1           0
 AtZEff=  -1.0000000  -3.6000000  -3.6000000  -1.0000000  -3.6000000  -1.0000000  -3.6000000  -3.6000000  -1.0000000  -3.6000000
 NQMom=    0.0000000   0.0000000   0.0000000   0.0000000   0.0000000   0.0000000   0.0000000   0.0000000   0.0000000   0.0000000
 NMagM=    2.7928460   0.0000000   0.0000000   2.7928460   0.0000000   2.7928460   0.0000000   0.0000000   2.7928460   0.0000000
 AtZNuc=   1.0000000   6.0000000   6.0000000   1.0000000   6.0000000   1.0000000   6.0000000   6.0000000   1.0000000   6.0000000

  Atom        51          52          53          54          55          56          57          58          59          60
 IAtWgt=          12          12          12          12          12          12          14          32          16          16
 AtmWgt=  12.0000000  12.0000000  12.0000000  12.0000000  12.0000000  12.0000000  14.0030740  31.9720718  15.9949146  15.9949146
 NucSpn=           0           0           0           0           0           0           2           0           0           0
 AtZEff=  -3.6000000  -3.6000000  -3.6000000  -3.6000000  -3.6000000  -3.6000000  -4.5500000 -13.6000000  -5.6000000  -5.6000000
 NQMom=    0.0000000   0.0000000   0.0000000   0.0000000   0.0000000   0.0000000   2.0440000   0.0000000   0.0000000   0.0000000
 NMagM=    0.0000000   0.0000000   0.0000000   0.0000000   0.0000000   0.0000000   0.4037610   0.0000000   0.0000000   0.0000000
 AtZNuc=   6.0000000   6.0000000   6.0000000   6.0000000   6.0000000   6.0000000   7.0000000  16.0000000   8.0000000   8.0000000

  Atom        61          62          63          64          65          66          67          68          69          70
 IAtWgt=          12          35           1           1          19          19          19          19          16          12
 AtmWgt=  12.0000000  34.9688527   1.0078250   1.0078250  18.9984033  18.9984033  18.9984033  18.9984033  15.9949146  12.0000000
 NucSpn=           0           3           1           1           1           1           1           1           0           0
 AtZEff=  -3.6000000 -14.2400000  -1.0000000  -1.0000000  -6.7500000  -6.7500000  -6.7500000  -6.7500000  -5.6000000  -3.6000000
 NQMom=    0.0000000  -8.1650000   0.0000000   0.0000000   0.0000000   0.0000000   0.0000000   0.0000000   0.0000000   0.0000000
 NMagM=    0.0000000   0.8218740   2.7928460   2.7928460   2.6288670   2.6288670   2.6288670   2.6288670   0.0000000   0.0000000
 AtZNuc=   6.0000000  17.0000000   1.0000000   1.0000000   9.0000000   9.0000000   9.0000000   9.0000000   8.0000000   6.0000000

  Atom        71          72          73
 IAtWgt=           1           1           1
 AtmWgt=   1.0078250   1.0078250   1.0078250
 NucSpn=           1           1           1
 AtZEff=  -1.0000000  -1.0000000  -1.0000000
 NQMom=    0.0000000   0.0000000   0.0000000
 NMagM=    2.7928460   2.7928460   2.7928460
 AtZNuc=   1.0000000   1.0000000   1.0000000
 Leave Link  101 at Tue Nov 28 17:54:51 2023, MaxMem=  2147483648 cpu:         3.1
 (Enter /cluster/apps/gaussian/g09/l202.exe)
 Stoichiometry    C26H35ClF4NO3PPdS
 Framework group  C1[X(C26H35ClF4NO3PPdS)]
 Deg. of freedom   213
 Full point group                 C1      NOp   1
 RotChk:  IX=0 Diff= 3.63D-15
 Largest Abelian subgroup         C1      NOp   1
 Largest concise Abelian subgroup C1      NOp   1
                         Standard orientation:                         
 ---------------------------------------------------------------------
 Center     Atomic      Atomic             Coordinates (Angstroms)
 Number     Number       Type             X           Y           Z
 ---------------------------------------------------------------------
      1         46           0       -0.561841   -0.493513    0.268013
      2         15           0       -2.631629   -0.263114   -0.709976
      3          6           0       -4.058295    0.006267    0.529734
      4          6           0       -3.770030    1.278749    1.336806
      5          1           0       -3.712317    2.187291    0.727892
      6          1           0       -4.586082    1.420548    2.063982
      7          1           0       -2.835511    1.171361    1.905504
      8          6           0       -5.441031    0.105602   -0.116957
      9          1           0       -5.693282   -0.776335   -0.719638
     10          1           0       -5.543677    0.995636   -0.751768
     11          1           0       -6.199248    0.188325    0.679302
     12          6           0       -4.055756   -1.128456    1.561184
     13          1           0       -4.366707   -2.095945    1.149105
     14          1           0       -3.070977   -1.239701    2.040841
     15          1           0       -4.776136   -0.869212    2.353715
     16          6           0       -2.824273    0.893088   -2.209652
     17          6           0       -1.462687    0.986167   -2.913213
     18          1           0       -1.130499    0.036579   -3.345059
     19          1           0       -1.547715    1.712789   -3.737599
     20          1           0       -0.681490    1.338407   -2.225053
     21          6           0       -3.896692    0.431625   -3.199669
     22          1           0       -3.963470    1.170400   -4.015242
     23          1           0       -3.657970   -0.534871   -3.661403
     24          1           0       -4.891851    0.357027   -2.742241
     25          6           0       -3.163430    2.312221   -1.739846
     26          1           0       -3.144592    2.973565   -2.621086
     27          1           0       -4.163970    2.394190   -1.296189
     28          1           0       -2.417974    2.696344   -1.030379
     29          6           0       -2.648244   -2.093385   -1.282358
     30          6           0       -4.019277   -2.692246   -1.589814
     31          1           0       -4.536697   -2.155317   -2.396071
     32          1           0       -4.679568   -2.715101   -0.713692
     33          1           0       -3.885529   -3.735473   -1.921354
     34          6           0       -1.965768   -2.889197   -0.151712
     35          1           0       -1.872165   -3.943334   -0.461376
     36          1           0       -2.492417   -2.874387    0.805466
     37          1           0       -0.909595   -2.584204    0.031874
     38          6           0       -1.744519   -2.260421   -2.509932
     39          1           0       -1.625382   -3.338888   -2.703027
     40          1           0       -2.162434   -1.812510   -3.419887
     41          1           0       -0.740446   -1.844247   -2.337185
     42          6           0        0.251558    1.304746    0.194949
     43          6           0       -0.446057    2.415322    0.660324
     44          1           0       -1.463650    2.298062    1.023407
     45          6           0        0.118031    3.692326    0.698959
     46          1           0       -0.477061    4.526127    1.072444
     47          6           0        1.433958    3.865656    0.269575
     48          6           0        2.155347    2.755840   -0.175504
     49          1           0        3.189698    2.920798   -0.474265
     50          6           0        1.595978    1.472566   -0.220439
     51          6           0        2.458536    0.344141   -0.636527
     52          6           0        3.444625    0.475285   -1.619292
     53          6           0        4.301352   -0.572190   -1.945166
     54          6           0        4.168927   -1.796246   -1.297264
     55          6           0        3.163316   -1.969973   -0.352332
     56          6           0        2.317206   -0.911806   -0.000555
     57          7           0        1.246944   -1.134695    0.854262
     58         16           0        1.421716   -1.577240    2.407160
     59          8           0        0.321424   -2.473349    2.745586
     60          8           0        2.808929   -1.924606    2.696220
     61          6           0        1.164808   -0.064443    3.386303
     62         17           0       -0.526951    0.409992    3.556958
     63          1           0        1.733167    0.745745    2.910756
     64          1           0        1.569712   -0.298874    4.379324
     65          9           0        2.985936   -3.173504    0.164485
     66          9           0        4.959592   -2.803533   -1.626293
     67          9           0        5.228341   -0.412109   -2.877698
     68          9           0        3.599726    1.609122   -2.299378
     69          8           0        2.091853    5.044158    0.261748
     70          6           0        1.425233    6.184625    0.720049
     71          1           0        2.131174    7.020304    0.632567
     72          1           0        1.119042    6.086713    1.777114
     73          1           0        0.529951    6.410732    0.113244
 ---------------------------------------------------------------------
 Rotational constants (GHZ):      0.1003435      0.0706877      0.0637619
 Leave Link  202 at Tue Nov 28 17:54:52 2023, MaxMem=  2147483648 cpu:         0.7
 (Enter /cluster/apps/gaussian/g09/l301.exe)
 General basis read from cards:  (5D, 7F)
 Centers:       3      4      8     12     16     17     21     25     29     30
 Centers:      34     38     42     43     45     47     48     50     51     52
 Centers:      53     54     55     56     61     70      5      6      7      9
 Centers:      10     11     13     14     15     18     19     20     22     23
 Centers:      24     26     27     28     31     32     33     35     36     37
 Centers:      39     40     41     44     46     49     63     64     71     72
 Centers:      73     58     65     66     67     68     57      2     62     59
 Centers:      60     69      1
 def2tzvp
 ****
 ======================================================================================================
                                       Pseudopotential Parameters
 ======================================================================================================
  Center     Atomic      Valence      Angular      Power
  Number     Number     Electrons     Momentum     of R      Exponent        Coefficient   SO-Coeffient
 ======================================================================================================
    1         46           18
                                      G and up 
                                                     2        1.0000000        0.00000000    0.00000000
                                      S - G
                                                     2       12.4300000      240.22904000    0.00000000
                                                     2        6.1707590       35.17194300    0.00000000
                                      P - G
                                                     2       11.0800000      170.41727600    0.00000000
                                                     2        5.8295540       28.47213300    0.00000000
                                      D - G
                                                     2        9.5100000       69.01384500    0.00000000
                                                     2        4.1397810       11.75086200    0.00000000
                                      F - G
                                                     2       13.2700000      -31.92955400    0.00000000
                                                     2        6.6300000       -5.39821700    0.00000000
    2         15
                                   No pseudopotential on this center.
    3          6
                                   No pseudopotential on this center.
    4          6
                                   No pseudopotential on this center.
    5          1
                                   No pseudopotential on this center.
    6          1
                                   No pseudopotential on this center.
    7          1
                                   No pseudopotential on this center.
    8          6
                                   No pseudopotential on this center.
    9          1
                                   No pseudopotential on this center.
   10          1
                                   No pseudopotential on this center.
   11          1
                                   No pseudopotential on this center.
   12          6
                                   No pseudopotential on this center.
   13          1
                                   No pseudopotential on this center.
   14          1
                                   No pseudopotential on this center.
   15          1
                                   No pseudopotential on this center.
   16          6
                                   No pseudopotential on this center.
   17          6
                                   No pseudopotential on this center.
   18          1
                                   No pseudopotential on this center.
   19          1
                                   No pseudopotential on this center.
   20          1
                                   No pseudopotential on this center.
   21          6
                                   No pseudopotential on this center.
   22          1
                                   No pseudopotential on this center.
   23          1
                                   No pseudopotential on this center.
   24          1
                                   No pseudopotential on this center.
   25          6
                                   No pseudopotential on this center.
   26          1
                                   No pseudopotential on this center.
   27          1
                                   No pseudopotential on this center.
   28          1
                                   No pseudopotential on this center.
   29          6
                                   No pseudopotential on this center.
   30          6
                                   No pseudopotential on this center.
   31          1
                                   No pseudopotential on this center.
   32          1
                                   No pseudopotential on this center.
   33          1
                                   No pseudopotential on this center.
   34          6
                                   No pseudopotential on this center.
   35          1
                                   No pseudopotential on this center.
   36          1
                                   No pseudopotential on this center.
   37          1
                                   No pseudopotential on this center.
   38          6
                                   No pseudopotential on this center.
   39          1
                                   No pseudopotential on this center.
   40          1
                                   No pseudopotential on this center.
   41          1
                                   No pseudopotential on this center.
   42          6
                                   No pseudopotential on this center.
   43          6
                                   No pseudopotential on this center.
   44          1
                                   No pseudopotential on this center.
   45          6
                                   No pseudopotential on this center.
   46          1
                                   No pseudopotential on this center.
   47          6
                                   No pseudopotential on this center.
   48          6
                                   No pseudopotential on this center.
   49          1
                                   No pseudopotential on this center.
   50          6
                                   No pseudopotential on this center.
   51          6
                                   No pseudopotential on this center.
   52          6
                                   No pseudopotential on this center.
   53          6
                                   No pseudopotential on this center.
   54          6
                                   No pseudopotential on this center.
   55          6
                                   No pseudopotential on this center.
   56          6
                                   No pseudopotential on this center.
   57          7
                                   No pseudopotential on this center.
   58         16
                                   No pseudopotential on this center.
   59          8
                                   No pseudopotential on this center.
   60          8
                                   No pseudopotential on this center.
   61          6
                                   No pseudopotential on this center.
   62         17
                                   No pseudopotential on this center.
   63          1
                                   No pseudopotential on this center.
   64          1
                                   No pseudopotential on this center.
   65          9
                                   No pseudopotential on this center.
   66          9
                                   No pseudopotential on this center.
   67          9
                                   No pseudopotential on this center.
   68          9
                                   No pseudopotential on this center.
   69          8
                                   No pseudopotential on this center.
   70          6
                                   No pseudopotential on this center.
   71          1
                                   No pseudopotential on this center.
   72          1
                                   No pseudopotential on this center.
   73          1
                                   No pseudopotential on this center.
 ======================================================================================================
 Ernie: Thresh=  0.10000D-02 Tol=  0.10000D-05 Strict=F.
 There are  1606 symmetry adapted cartesian basis functions of A   symmetry.
 There are  1415 symmetry adapted basis functions of A   symmetry.
  1415 basis functions,  2295 primitive gaussians,  1606 cartesian basis functions
   162 alpha electrons      162 beta electrons
       nuclear repulsion energy      6161.3071198707 Hartrees.
 IExCor= 4639 DFT=T Ex+Corr=wB97XD ExCW=0 ScaHFX=  1.000000
 ScaDFX=  1.000000  1.000000  1.000000  1.000000 ScalE2=  1.000000  1.000000
 IRadAn=      5 IRanWt=     -1 IRanGd=            0 ICorTp=0 IEmpDi=121
  HFx wShort=  0.000000 wLong=  0.200000 cFull=  0.222036 cShort=  0.000000 cLong=  0.777964
  DFx wShort=  0.000000 wLong=  0.200000 cFull=  0.000000 cShort=  0.000000 cLong=  1.000000
 NAtoms=   73 NActive=   73 NUniq=   73 SFac= 1.00D+00 NAtFMM=   60 NAOKFM=T Big=T
 Integral buffers will be    131072 words long.
 Raffenetti 2 integral format.
 Two-electron integral symmetry is turned on.
 R6Disp:  Grimme-D2 Dispersion energy=       -0.0959318070 Hartrees.
 Nuclear repulsion after empirical dispersion term =     6161.2111880637 Hartrees.
 ------------------------------------------------------------------------------
 Polarizable Continuum Model (PCM)
 =================================
 Model                : PCM (using non-symmetric T matrix).
 Atomic radii         : SMD-Coulomb.
 Polarization charges : Total charges.
 Charge compensation  : None.
 Solution method      : On-the-fly selection.
 Cavity type          : VdW (van der Waals Surface) (Alpha=1.000).
 Cavity algorithm     : GePol (No added spheres)
                        Default sphere list used, NSphG=   73.
                        Lebedev-Laikov grids with approx.  5.0 points / Ang**2.
                        Smoothing algorithm: Karplus/York (Gamma=1.0000).
                        Polarization charges: spherical gaussians, with
                                              point-specific exponents (IZeta= 3).
                        Self-potential: point-specific (ISelfS= 7).
                        Self-field    : sphere-specific E.n sum rule (ISelfD= 2).
 Solvent              : Dichloromethane, Eps=   8.930000 Eps(inf)=   2.028346
 ------------------------------------------------------------------------------
 GePol: Number of generator spheres                  =      73
 GePol: Total number of spheres                      =      73
 GePol: Number of exposed spheres                    =      73 (100.00%)
 GePol: Number of points                             =    4890
 GePol: Average weight of points                     =       0.12
 GePol: Minimum weight of points                     =   0.53D-09
 GePol: Maximum weight of points                     =    0.21501
 GePol: Number of points with low weight             =     362
 GePol: Fraction of low-weight points (<1% of avg)   =       7.40%
 GePol: Cavity surface area                          =    567.021 Ang**2
 GePol: Cavity volume                                =    616.755 Ang**3
 ------------------------------------------------------------------------------
 Atomic radii for non-electrostatic terms: SMD-CDS.
 ------------------------------------------------------------------------------
 PCM non-electrostatic energy =        -0.0073857780 Hartrees.
 Nuclear repulsion after PCM non-electrostatic terms =     6161.2038022857 Hartrees.
 Leave Link  301 at Tue Nov 28 17:54:52 2023, MaxMem=  2147483648 cpu:         0.5
 (Enter /cluster/apps/gaussian/g09/l302.exe)
 NPDir=0 NMtPBC=     1 NCelOv=     1 NCel=       1 NClECP=     1 NCelD=      1
         NCelK=      1 NCelE2=     1 NClLst=     1 CellRange=     0.0.
 One-electron integrals computed using PRISM.
   1 Symmetry operations used in ECPInt.
 ECPInt:  NShTT=  161028 NPrTT=  493502 LenC2=  127858 LenP2D=  260489.
 LDataN:  DoStor=T MaxTD1= 7 Len=  274
 NBasis=  1415 RedAO= T EigKep=  3.65D-06  NBF=  1415
 NBsUse=  1415 1.00D-06 EigRej= -1.00D+00 NBFU=  1415
 Precomputing XC quadrature grid using
 IXCGrd= 4 IRadAn=           5 IRanWt=          -1 IRanGd=           0 AccXCQ= 0.00D+00.
 Defaulting to unpruned grid for atomic number  46.
 Generated NRdTot=       0 NPtTot=           0 NUsed=           0 NTot=          32
 NSgBfM=  1499  1506  1508  1509  1511 MxSgAt=    73 MxSgA2=    73.
 Leave Link  302 at Tue Nov 28 17:54:59 2023, MaxMem=  2147483648 cpu:        59.0
 (Enter /cluster/apps/gaussian/g09/l303.exe)
 DipDrv:  MaxL=1.
 Leave Link  303 at Tue Nov 28 17:55:01 2023, MaxMem=  2147483648 cpu:         8.1
 (Enter /cluster/apps/gaussian/g09/l401.exe)
 ExpMin= 3.70D-02 ExpMax= 6.95D+04 ExpMxC= 2.37D+03 IAcc=3 IRadAn=         5 AccDes= 0.00D+00
 Harris functional with IExCor= 4639 and IRadAn=       5 diagonalized for initial guess.
 HarFok:  IExCor= 4639 AccDes= 0.00D+00 IRadAn=         5 IDoV= 1 UseB2=F ITyADJ=14
 ICtDFT=  3500011 ScaDFX=  1.000000  1.000000  1.000000  1.000000
 Defaulting to unpruned grid for atomic number  46.
 Defaulting to unpruned grid for atomic number  46.
 Defaulting to unpruned grid for atomic number  46.
 Defaulting to unpruned grid for atomic number  46.
 Defaulting to unpruned grid for atomic number  46.
 Defaulting to unpruned grid for atomic number  46.
 Defaulting to unpruned grid for atomic number  46.
 Defaulting to unpruned grid for atomic number  46.
 FoFCou: FMM=F IPFlag=           0 FMFlag=      100000 FMFlg1=        2001
         NFxFlg=           0 DoJE=T BraDBF=F KetDBF=T FulRan=T
         wScrn=  0.000000 ICntrl=     500 IOpCl=  0 I1Cent=   200000004 NGrid=           0
         NMat0=    1 NMatS0=      1 NMatT0=    0 NMatD0=    1 NMtDS0=    0 NMtDT0=    0
 Petite list used in FoFCou.
 Harris En= -2925.54274056386    
 JPrj=0 DoOrth=F DoCkMO=F.
 Leave Link  401 at Tue Nov 28 17:55:38 2023, MaxMem=  2147483648 cpu:       276.5
 (Enter /cluster/apps/gaussian/g09/l502.exe)
 Closed shell SCF:
 Using DIIS extrapolation, IDIIS=  1040.
 Integral symmetry usage will be decided dynamically.
 IVT=     7780870 IEndB=     7780870 NGot=  2147483648 MDV=  2142300261
 LenX=  2142300261 LenY=  2139719419
 Requested convergence on RMS density matrix=1.00D-08 within 128 cycles.
 Requested convergence on MAX density matrix=1.00D-06.
 Requested convergence on             energy=1.00D-06.
 No special actions if energy rises.
 Fock matrices will be formed incrementally for  20 cycles.

 Cycle   1  Pass 1  IDiag  1:
 FoFJK:  IHMeth= 1 ICntrl=       0 DoSepK=T KAlg= 0 I1Cent=   0 FoldK=F
 IRaf=         1 NMat=   1 IRICut=       1 DoRegI=T DoRafI=F ISym2E= 0.
 FoFCou: FMM=T IPFlag=           0 FMFlag=      100000 FMFlg1=        2001
         NFxFlg=           0 DoJE=T BraDBF=F KetDBF=F FulRan=T
         wScrn=  0.000000 ICntrl=     500 IOpCl=  0 I1Cent=           0 NGrid=           0
         NMat0=    1 NMatS0=      1 NMatT0=    0 NMatD0=    1 NMtDS0=    0 NMtDT0=    0
 Symmetry not used in FoFCou.
 FMM levels:  10  Number of levels for PrismC:   9
 Defaulting to unpruned grid for atomic number  46.
 Defaulting to unpruned grid for atomic number  46.
 Defaulting to unpruned grid for atomic number  46.
 Defaulting to unpruned grid for atomic number  46.
 Defaulting to unpruned grid for atomic number  46.
 Defaulting to unpruned grid for atomic number  46.
 Defaulting to unpruned grid for atomic number  46.
 Defaulting to unpruned grid for atomic number  46.
 Inv3:  Mode=1 IEnd=    71736300.
 Iteration    1 A*A^-1 deviation from unit magnitude is 8.88D-15 for   4862.
 Iteration    1 A*A^-1 deviation from orthogonality  is 7.78D-15 for   4889   4145.
 Iteration    1 A^-1*A deviation from unit magnitude is 9.77D-15 for   4862.
 Iteration    1 A^-1*A deviation from orthogonality  is 3.00D-10 for   2869   2222.
 Iteration    2 A*A^-1 deviation from unit magnitude is 3.33D-15 for    251.
 Iteration    2 A*A^-1 deviation from orthogonality  is 3.36D-15 for   3248    112.
 Iteration    2 A^-1*A deviation from unit magnitude is 1.44D-15 for   2969.
 Iteration    2 A^-1*A deviation from orthogonality  is 4.16D-16 for   4702    376.
 E= -3010.08941853883    
 DIIS: error= 8.16D-02 at cycle   1 NSaved=   1.
 NSaved= 1 IEnMin= 1 EnMin= -3010.08941853883     IErMin= 1 ErrMin= 8.16D-02
 ErrMax= 8.16D-02  0.00D+00 EMaxC= 1.00D-01 BMatC= 1.36D+01 BMatP= 1.36D+01
 IDIUse=3 WtCom= 1.84D-01 WtEn= 8.16D-01
 Coeff-Com:  0.100D+01
 Coeff-En:   0.100D+01
 Coeff:      0.100D+01
 Gap=    -0.158 Goal=   None    Shift=    0.000
 GapD=   -0.158 DampG=0.250 DampE=0.250 DampFc=0.1250 IDamp=-1.
 Damping current iteration by 1.25D-01
 RMSDP=6.99D-02 MaxDP=2.05D+01              OVMax= 9.81D-01

 Cycle   2  Pass 1  IDiag  1:
 RMSU=  8.74D-03    CP:  1.01D+00
 E= -3012.54750465999     Delta-E=       -2.458086121165 Rises=F Damp=T
 DIIS: error= 4.98D-02 at cycle   2 NSaved=   2.
 NSaved= 2 IEnMin= 2 EnMin= -3012.54750465999     IErMin= 2 ErrMin= 4.98D-02
 ErrMax= 4.98D-02  0.00D+00 EMaxC= 1.00D-01 BMatC= 6.62D+00 BMatP= 1.36D+01
 IDIUse=3 WtCom= 5.02D-01 WtEn= 4.98D-01
 Coeff-Com: -0.155D+01 0.255D+01
 Coeff-En:   0.000D+00 0.100D+01
 Coeff:     -0.776D+00 0.178D+01
 Gap=    -0.197 Goal=   None    Shift=    0.000
 RMSDP=1.21D-02 MaxDP=3.02D+00 DE=-2.46D+00 OVMax= 6.90D-01

 Cycle   3  Pass 1  IDiag  1:
 RMSU=  6.98D-03    CP:  3.05D-01  7.43D-01
 E= -3016.33853482697     Delta-E=       -3.791030166976 Rises=F Damp=F
 DIIS: error= 2.67D-02 at cycle   3 NSaved=   3.
 NSaved= 3 IEnMin= 3 EnMin= -3016.33853482697     IErMin= 3 ErrMin= 2.67D-02
 ErrMax= 2.67D-02  0.00D+00 EMaxC= 1.00D-01 BMatC= 4.72D+00 BMatP= 6.62D+00
 IDIUse=3 WtCom= 7.33D-01 WtEn= 2.67D-01
 EnCoef did   100 forward-backward iterations
 Coeff-Com: -0.513D+00 0.108D+01 0.431D+00
 Coeff-En:   0.287D+00 0.346D-02 0.709D+00
 Coeff:     -0.300D+00 0.794D+00 0.505D+00
 Gap=     0.275 Goal=   None    Shift=    0.000
 RMSDP=7.19D-03 MaxDP=2.66D+00 DE=-3.79D+00 OVMax= 4.17D-01

 Cycle   4  Pass 1  IDiag  1:
 RMSU=  3.14D-03    CP:  2.43D-01  1.24D-01  5.05D-01
 E= -3019.26971376173     Delta-E=       -2.931178934758 Rises=F Damp=F
 DIIS: error= 1.28D-02 at cycle   4 NSaved=   4.
 NSaved= 4 IEnMin= 4 EnMin= -3019.26971376173     IErMin= 4 ErrMin= 1.28D-02
 ErrMax= 1.28D-02  0.00D+00 EMaxC= 1.00D-01 BMatC= 3.91D-01 BMatP= 4.72D+00
 IDIUse=3 WtCom= 8.72D-01 WtEn= 1.28D-01
 Coeff-Com: -0.238D+00 0.339D+00 0.160D+00 0.740D+00
 Coeff-En:   0.000D+00 0.000D+00 0.947D-02 0.991D+00
 Coeff:     -0.208D+00 0.295D+00 0.140D+00 0.772D+00
 Gap=     0.357 Goal=   None    Shift=    0.000
 RMSDP=8.44D-04 MaxDP=1.94D-01 DE=-2.93D+00 OVMax= 9.63D-02

 Cycle   5  Pass 1  IDiag  1:
 RMSU=  7.73D-04    CP:  2.19D-01  1.23D-01  5.16D-01  9.99D-01
 E= -3019.47742400369     Delta-E=       -0.207710241961 Rises=F Damp=F
 DIIS: error= 4.03D-03 at cycle   5 NSaved=   5.
 NSaved= 5 IEnMin= 5 EnMin= -3019.47742400369     IErMin= 5 ErrMin= 4.03D-03
 ErrMax= 4.03D-03  0.00D+00 EMaxC= 1.00D-01 BMatC= 6.91D-02 BMatP= 3.91D-01
 IDIUse=3 WtCom= 9.60D-01 WtEn= 4.03D-02
 Coeff-Com: -0.112D+00 0.137D+00 0.443D-03 0.333D+00 0.641D+00
 Coeff-En:   0.000D+00 0.000D+00 0.000D+00 0.127D+00 0.873D+00
 Coeff:     -0.108D+00 0.132D+00 0.425D-03 0.325D+00 0.650D+00
 Gap=     0.284 Goal=   None    Shift=    0.000
 RMSDP=4.14D-04 MaxDP=1.33D-01 DE=-2.08D-01 OVMax= 4.31D-02

 Cycle   6  Pass 1  IDiag  1:
 RMSU=  2.45D-04    CP:  2.11D-01  9.88D-02  4.92D-01  1.05D+00  9.74D-01
 E= -3019.52656524998     Delta-E=       -0.049141246291 Rises=F Damp=F
 DIIS: error= 8.40D-04 at cycle   6 NSaved=   6.
 NSaved= 6 IEnMin= 6 EnMin= -3019.52656524998     IErMin= 6 ErrMin= 8.40D-04
 ErrMax= 8.40D-04  0.00D+00 EMaxC= 1.00D-01 BMatC= 4.58D-03 BMatP= 6.91D-02
 IDIUse=3 WtCom= 9.92D-01 WtEn= 8.40D-03
 Coeff-Com: -0.445D-01 0.523D-01-0.148D-01 0.658D-01 0.280D+00 0.662D+00
 Coeff-En:   0.000D+00 0.000D+00 0.000D+00 0.000D+00 0.000D+00 0.100D+01
 Coeff:     -0.441D-01 0.518D-01-0.147D-01 0.653D-01 0.277D+00 0.664D+00
 Gap=     0.286 Goal=   None    Shift=    0.000
 RMSDP=1.21D-04 MaxDP=1.82D-02 DE=-4.91D-02 OVMax= 1.56D-02

 Cycle   7  Pass 1  IDiag  1:
 RMSU=  9.68D-05    CP:  2.11D-01  1.01D-01  4.92D-01  1.05D+00  1.06D+00
                    CP:  9.96D-01
 E= -3019.53142526410     Delta-E=       -0.004860014118 Rises=F Damp=F
 DIIS: error= 3.35D-04 at cycle   7 NSaved=   7.
 NSaved= 7 IEnMin= 7 EnMin= -3019.53142526410     IErMin= 7 ErrMin= 3.35D-04
 ErrMax= 3.35D-04  0.00D+00 EMaxC= 1.00D-01 BMatC= 5.47D-04 BMatP= 4.58D-03
 IDIUse=3 WtCom= 9.97D-01 WtEn= 3.35D-03
 Coeff-Com: -0.611D-02 0.651D-02-0.745D-02-0.188D-01 0.112D-01 0.268D+00
 Coeff-Com:  0.746D+00
 Coeff-En:   0.000D+00 0.000D+00 0.000D+00 0.000D+00 0.000D+00 0.000D+00
 Coeff-En:   0.100D+01
 Coeff:     -0.609D-02 0.649D-02-0.742D-02-0.187D-01 0.112D-01 0.267D+00
 Coeff:      0.747D+00
 Gap=     0.289 Goal=   None    Shift=    0.000
 RMSDP=4.99D-05 MaxDP=8.73D-03 DE=-4.86D-03 OVMax= 1.12D-02

 Cycle   8  Pass 1  IDiag  1:
 RMSU=  3.41D-05    CP:  2.11D-01  9.96D-02  4.91D-01  1.05D+00  1.09D+00
                    CP:  1.10D+00  1.06D+00
 E= -3019.53223956730     Delta-E=       -0.000814303199 Rises=F Damp=F
 DIIS: error= 9.71D-05 at cycle   8 NSaved=   8.
 NSaved= 8 IEnMin= 8 EnMin= -3019.53223956730     IErMin= 8 ErrMin= 9.71D-05
 ErrMax= 9.71D-05  0.00D+00 EMaxC= 1.00D-01 BMatC= 8.16D-05 BMatP= 5.47D-04
 IDIUse=1 WtCom= 1.00D+00 WtEn= 0.00D+00
 Coeff-Com:  0.121D-02-0.185D-02-0.172D-02-0.533D-02-0.198D-01 0.180D-01
 Coeff-Com:  0.199D+00 0.811D+00
 Coeff:      0.121D-02-0.185D-02-0.172D-02-0.533D-02-0.198D-01 0.180D-01
 Coeff:      0.199D+00 0.811D+00
 Gap=     0.290 Goal=   None    Shift=    0.000
 RMSDP=2.26D-05 MaxDP=3.94D-03 DE=-8.14D-04 OVMax= 5.01D-03

 Cycle   9  Pass 1  IDiag  1:
 RMSU=  1.78D-05    CP:  2.11D-01  9.91D-02  4.90D-01  1.05D+00  1.10D+00
                    CP:  1.13D+00  1.13D+00  1.06D+00
 E= -3019.53239749891     Delta-E=       -0.000157931612 Rises=F Damp=F
 DIIS: error= 5.13D-05 at cycle   9 NSaved=   9.
 NSaved= 9 IEnMin= 9 EnMin= -3019.53239749891     IErMin= 9 ErrMin= 5.13D-05
 ErrMax= 5.13D-05  0.00D+00 EMaxC= 1.00D-01 BMatC= 1.86D-05 BMatP= 8.16D-05
 IDIUse=1 WtCom= 1.00D+00 WtEn= 0.00D+00
 Coeff-Com:  0.726D-03-0.931D-03 0.324D-04 0.130D-02-0.793D-02-0.355D-01
 Coeff-Com: -0.729D-01 0.313D+00 0.803D+00
 Coeff:      0.726D-03-0.931D-03 0.324D-04 0.130D-02-0.793D-02-0.355D-01
 Coeff:     -0.729D-01 0.313D+00 0.803D+00
 Gap=     0.291 Goal=   None    Shift=    0.000
 RMSDP=1.06D-05 MaxDP=1.29D-03 DE=-1.58D-04 OVMax= 3.28D-03

 Cycle  10  Pass 1  IDiag  1:
 RMSU=  6.64D-06    CP:  2.11D-01  9.91D-02  4.90D-01  1.05D+00  1.10D+00
                    CP:  1.14D+00  1.15D+00  1.24D+00  1.19D+00
 E= -3019.53244088603     Delta-E=       -0.000043387123 Rises=F Damp=F
 DIIS: error= 2.27D-05 at cycle  10 NSaved=  10.
 NSaved=10 IEnMin=10 EnMin= -3019.53244088603     IErMin=10 ErrMin= 2.27D-05
 ErrMax= 2.27D-05  0.00D+00 EMaxC= 1.00D-01 BMatC= 4.67D-06 BMatP= 1.86D-05
 IDIUse=1 WtCom= 1.00D+00 WtEn= 0.00D+00
 Coeff-Com:  0.227D-03-0.285D-03 0.324D-03-0.165D-04-0.115D-02-0.166D-01
 Coeff-Com: -0.544D-01-0.846D-02 0.340D+00 0.740D+00
 Coeff:      0.227D-03-0.285D-03 0.324D-03-0.165D-04-0.115D-02-0.166D-01
 Coeff:     -0.544D-01-0.846D-02 0.340D+00 0.740D+00
 Gap=     0.291 Goal=   None    Shift=    0.000
 RMSDP=4.86D-06 MaxDP=4.95D-04 DE=-4.34D-05 OVMax= 1.69D-03

 Cycle  11  Pass 1  IDiag  1:
 RMSU=  2.58D-06    CP:  2.11D-01  9.92D-02  4.90D-01  1.05D+00  1.10D+00
                    CP:  1.14D+00  1.16D+00  1.28D+00  1.39D+00  1.08D+00
 E= -3019.53245061334     Delta-E=       -0.000009727304 Rises=F Damp=F
 DIIS: error= 1.34D-05 at cycle  11 NSaved=  11.
 NSaved=11 IEnMin=11 EnMin= -3019.53245061334     IErMin=11 ErrMin= 1.34D-05
 ErrMax= 1.34D-05  0.00D+00 EMaxC= 1.00D-01 BMatC= 1.00D-06 BMatP= 4.67D-06
 IDIUse=1 WtCom= 1.00D+00 WtEn= 0.00D+00
 Coeff-Com:  0.219D-04-0.144D-04 0.185D-03-0.907D-03 0.215D-03-0.646D-03
 Coeff-Com: -0.908D-03-0.420D-01-0.271D-01 0.241D+00 0.830D+00
 Coeff:      0.219D-04-0.144D-04 0.185D-03-0.907D-03 0.215D-03-0.646D-03
 Coeff:     -0.908D-03-0.420D-01-0.271D-01 0.241D+00 0.830D+00
 Gap=     0.291 Goal=   None    Shift=    0.000
 RMSDP=2.76D-06 MaxDP=5.90D-04 DE=-9.73D-06 OVMax= 8.71D-04

 Cycle  12  Pass 1  IDiag  1:
 RMSU=  1.27D-06    CP:  2.11D-01  9.93D-02  4.90D-01  1.05D+00  1.10D+00
                    CP:  1.14D+00  1.16D+00  1.30D+00  1.46D+00  1.20D+00
                    CP:  1.36D+00
 E= -3019.53245310559     Delta-E=       -0.000002492250 Rises=F Damp=F
 DIIS: error= 3.92D-06 at cycle  12 NSaved=  12.
 NSaved=12 IEnMin=12 EnMin= -3019.53245310559     IErMin=12 ErrMin= 3.92D-06
 ErrMax= 3.92D-06  0.00D+00 EMaxC= 1.00D-01 BMatC= 1.27D-07 BMatP= 1.00D-06
 IDIUse=1 WtCom= 1.00D+00 WtEn= 0.00D+00
 Coeff-Com:  0.894D-05-0.937D-05-0.838D-05 0.328D-04 0.668D-03 0.177D-02
 Coeff-Com:  0.794D-02-0.166D-02-0.712D-01-0.118D+00 0.128D+00 0.105D+01
 Coeff:      0.894D-05-0.937D-05-0.838D-05 0.328D-04 0.668D-03 0.177D-02
 Coeff:      0.794D-02-0.166D-02-0.712D-01-0.118D+00 0.128D+00 0.105D+01
 Gap=     0.291 Goal=   None    Shift=    0.000
 RMSDP=1.51D-06 MaxDP=2.77D-04 DE=-2.49D-06 OVMax= 6.63D-04

 Cycle  13  Pass 1  IDiag  1:
 RMSU=  6.41D-07    CP:  2.11D-01  9.93D-02  4.90D-01  1.05D+00  1.10D+00
                    CP:  1.14D+00  1.16D+00  1.31D+00  1.49D+00  1.27D+00
                    CP:  1.63D+00  1.37D+00
 E= -3019.53245387803     Delta-E=       -0.000000772448 Rises=F Damp=F
 DIIS: error= 2.94D-06 at cycle  13 NSaved=  13.
 NSaved=13 IEnMin=13 EnMin= -3019.53245387803     IErMin=13 ErrMin= 2.94D-06
 ErrMax= 2.94D-06  0.00D+00 EMaxC= 1.00D-01 BMatC= 4.34D-08 BMatP= 1.27D-07
 IDIUse=1 WtCom= 1.00D+00 WtEn= 0.00D+00
 Coeff-Com: -0.207D-05 0.122D-05-0.415D-04 0.274D-03 0.422D-03 0.832D-03
 Coeff-Com:  0.215D-02 0.519D-02-0.234D-01-0.946D-01-0.102D+00 0.453D+00
 Coeff-Com:  0.758D+00
 Coeff:     -0.207D-05 0.122D-05-0.415D-04 0.274D-03 0.422D-03 0.832D-03
 Coeff:      0.215D-02 0.519D-02-0.234D-01-0.946D-01-0.102D+00 0.453D+00
 Coeff:      0.758D+00
 Gap=     0.291 Goal=   None    Shift=    0.000
 RMSDP=5.99D-07 MaxDP=1.02D-04 DE=-7.72D-07 OVMax= 2.79D-04

 Cycle  14  Pass 1  IDiag  1:
 RMSU=  2.96D-07    CP:  2.11D-01  9.93D-02  4.90D-01  1.05D+00  1.10D+00
                    CP:  1.14D+00  1.16D+00  1.31D+00  1.51D+00  1.29D+00
                    CP:  1.73D+00  1.57D+00  1.27D+00
 E= -3019.53245403574     Delta-E=       -0.000000157706 Rises=F Damp=F
 DIIS: error= 9.75D-07 at cycle  14 NSaved=  14.
 NSaved=14 IEnMin=14 EnMin= -3019.53245403574     IErMin=14 ErrMin= 9.75D-07
 ErrMax= 9.75D-07  0.00D+00 EMaxC= 1.00D-01 BMatC= 8.25D-09 BMatP= 4.34D-08
 IDIUse=1 WtCom= 1.00D+00 WtEn= 0.00D+00
 Coeff-Com: -0.881D-05 0.129D-04-0.179D-04 0.557D-04-0.665D-04 0.212D-03
 Coeff-Com: -0.698D-03 0.151D-02 0.827D-02-0.241D-03-0.536D-01-0.125D+00
 Coeff-Com:  0.221D+00 0.948D+00
 Coeff:     -0.881D-05 0.129D-04-0.179D-04 0.557D-04-0.665D-04 0.212D-03
 Coeff:     -0.698D-03 0.151D-02 0.827D-02-0.241D-03-0.536D-01-0.125D+00
 Coeff:      0.221D+00 0.948D+00
 Gap=     0.291 Goal=   None    Shift=    0.000
 RMSDP=2.81D-07 MaxDP=5.59D-05 DE=-1.58D-07 OVMax= 1.48D-04

 Cycle  15  Pass 1  IDiag  1:
 RMSU=  1.46D-07    CP:  2.11D-01  9.93D-02  4.90D-01  1.05D+00  1.10D+00
                    CP:  1.14D+00  1.16D+00  1.31D+00  1.51D+00  1.29D+00
                    CP:  1.76D+00  1.64D+00  1.57D+00  1.21D+00
 E= -3019.53245407405     Delta-E=       -0.000000038313 Rises=F Damp=F
 DIIS: error= 3.96D-07 at cycle  15 NSaved=  15.
 NSaved=15 IEnMin=15 EnMin= -3019.53245407405     IErMin=15 ErrMin= 3.96D-07
 ErrMax= 3.96D-07  0.00D+00 EMaxC= 1.00D-01 BMatC= 1.52D-09 BMatP= 8.25D-09
 IDIUse=1 WtCom= 1.00D+00 WtEn= 0.00D+00
 Coeff-Com: -0.323D-05 0.420D-05 0.295D-05-0.318D-04-0.144D-03-0.101D-03
 Coeff-Com: -0.639D-03-0.378D-03 0.742D-02 0.193D-01 0.193D-02-0.139D+00
 Coeff-Com: -0.847D-01 0.313D+00 0.883D+00
 Coeff:     -0.323D-05 0.420D-05 0.295D-05-0.318D-04-0.144D-03-0.101D-03
 Coeff:     -0.639D-03-0.378D-03 0.742D-02 0.193D-01 0.193D-02-0.139D+00
 Coeff:     -0.847D-01 0.313D+00 0.883D+00
 Gap=     0.291 Goal=   None    Shift=    0.000
 RMSDP=1.39D-07 MaxDP=2.55D-05 DE=-3.83D-08 OVMax= 6.52D-05

 Cycle  16  Pass 1  IDiag  1:
 RMSU=  5.76D-08    CP:  2.11D-01  9.93D-02  4.90D-01  1.05D+00  1.10D+00
                    CP:  1.14D+00  1.16D+00  1.31D+00  1.51D+00  1.29D+00
                    CP:  1.77D+00  1.67D+00  1.67D+00  1.42D+00  1.35D+00
 E= -3019.53245408109     Delta-E=       -0.000000007036 Rises=F Damp=F
 DIIS: error= 2.10D-07 at cycle  16 NSaved=  16.
 NSaved=16 IEnMin=16 EnMin= -3019.53245408109     IErMin=16 ErrMin= 2.10D-07
 ErrMax= 2.10D-07  0.00D+00 EMaxC= 1.00D-01 BMatC= 2.88D-10 BMatP= 1.52D-09
 IDIUse=1 WtCom= 1.00D+00 WtEn= 0.00D+00
 Coeff-Com: -0.116D-05 0.108D-05 0.353D-05-0.185D-04-0.519D-04-0.962D-04
 Coeff-Com: -0.104D-03-0.137D-03 0.156D-02 0.612D-02 0.711D-02-0.314D-01
 Coeff-Com: -0.563D-01-0.279D-01 0.335D+00 0.766D+00
 Coeff:     -0.116D-05 0.108D-05 0.353D-05-0.185D-04-0.519D-04-0.962D-04
 Coeff:     -0.104D-03-0.137D-03 0.156D-02 0.612D-02 0.711D-02-0.314D-01
 Coeff:     -0.563D-01-0.279D-01 0.335D+00 0.766D+00
 Gap=     0.291 Goal=   None    Shift=    0.000
 RMSDP=4.11D-08 MaxDP=6.20D-06 DE=-7.04D-09 OVMax= 1.66D-05

 Cycle  17  Pass 1  IDiag  1:
 RMSU=  2.39D-08    CP:  2.11D-01  9.93D-02  4.90D-01  1.05D+00  1.10D+00
                    CP:  1.14D+00  1.16D+00  1.31D+00  1.51D+00  1.29D+00
                    CP:  1.77D+00  1.67D+00  1.69D+00  1.46D+00  1.51D+00
                    CP:  1.22D+00
 E= -3019.53245408144     Delta-E=       -0.000000000347 Rises=F Damp=F
 DIIS: error= 8.76D-08 at cycle  17 NSaved=  17.
 NSaved=17 IEnMin=17 EnMin= -3019.53245408144     IErMin=17 ErrMin= 8.76D-08
 ErrMax= 8.76D-08  0.00D+00 EMaxC= 1.00D-01 BMatC= 6.00D-11 BMatP= 2.88D-10
 IDIUse=1 WtCom= 1.00D+00 WtEn= 0.00D+00
 Coeff-Com:  0.355D-06-0.579D-06 0.103D-05-0.108D-05 0.690D-05-0.422D-04
 Coeff-Com:  0.564D-04 0.105D-03-0.631D-03-0.173D-02 0.197D-02 0.156D-01
 Coeff-Com: -0.234D-02-0.753D-01-0.449D-01 0.284D+00 0.823D+00
 Coeff:      0.355D-06-0.579D-06 0.103D-05-0.108D-05 0.690D-05-0.422D-04
 Coeff:      0.564D-04 0.105D-03-0.631D-03-0.173D-02 0.197D-02 0.156D-01
 Coeff:     -0.234D-02-0.753D-01-0.449D-01 0.284D+00 0.823D+00
 Gap=     0.291 Goal=   None    Shift=    0.000
 RMSDP=2.75D-08 MaxDP=3.30D-06 DE=-3.47D-10 OVMax= 6.78D-06

 Cycle  18  Pass 1  IDiag  1:
 RMSU=  1.67D-08    CP:  2.11D-01  9.93D-02  4.90D-01  1.05D+00  1.10D+00
                    CP:  1.14D+00  1.16D+00  1.31D+00  1.51D+00  1.29D+00
                    CP:  1.77D+00  1.66D+00  1.69D+00  1.46D+00  1.59D+00
                    CP:  1.38D+00  1.47D+00
 E= -3019.53245408197     Delta-E=       -0.000000000537 Rises=F Damp=F
 DIIS: error= 4.29D-08 at cycle  18 NSaved=  18.
 NSaved=18 IEnMin=18 EnMin= -3019.53245408197     IErMin=18 ErrMin= 4.29D-08
 ErrMax= 4.29D-08  0.00D+00 EMaxC= 1.00D-01 BMatC= 1.41D-11 BMatP= 6.00D-11
 IDIUse=1 WtCom= 1.00D+00 WtEn= 0.00D+00
 Coeff-Com:  0.281D-06-0.336D-06-0.983D-07 0.342D-05 0.153D-04-0.709D-05
 Coeff-Com:  0.320D-04 0.571D-04-0.554D-03-0.204D-02-0.472D-03 0.140D-01
 Coeff-Com:  0.966D-02-0.320D-01-0.868D-01-0.154D-01 0.386D+00 0.728D+00
 Coeff:      0.281D-06-0.336D-06-0.983D-07 0.342D-05 0.153D-04-0.709D-05
 Coeff:      0.320D-04 0.571D-04-0.554D-03-0.204D-02-0.472D-03 0.140D-01
 Coeff:      0.966D-02-0.320D-01-0.868D-01-0.154D-01 0.386D+00 0.728D+00
 Gap=     0.291 Goal=   None    Shift=    0.000
 RMSDP=2.22D-08 MaxDP=1.53D-06 DE=-5.37D-10 OVMax= 3.14D-06

 Cycle  19  Pass 1  IDiag  1:
 RMSU=  1.39D-08    CP:  2.11D-01  9.93D-02  4.90D-01  1.05D+00  1.10D+00
                    CP:  1.14D+00  1.16D+00  1.31D+00  1.51D+00  1.29D+00
                    CP:  1.77D+00  1.66D+00  1.69D+00  1.46D+00  1.61D+00
                    CP:  1.47D+00  1.86D+00  1.66D+00
 E= -3019.53245408196     Delta-E=        0.000000000013 Rises=F Damp=F
 DIIS: error= 6.17D-08 at cycle  19 NSaved=  19.
 NSaved=19 IEnMin=18 EnMin= -3019.53245408197     IErMin=18 ErrMin= 4.29D-08
 ErrMax= 6.17D-08  0.00D+00 EMaxC= 1.00D-01 BMatC= 1.76D-12 BMatP= 1.41D-11
 IDIUse=1 WtCom= 1.00D+00 WtEn= 0.00D+00
 Coeff-Com:  0.187D-06-0.179D-06-0.163D-06 0.106D-05 0.337D-05 0.562D-05
 Coeff-Com:  0.692D-05-0.536D-05-0.747D-04-0.330D-03-0.466D-03 0.179D-02
 Coeff-Com:  0.286D-02 0.285D-02-0.174D-01-0.508D-01-0.407D-01 0.184D+00
 Coeff-Com:  0.918D+00
 Coeff:      0.187D-06-0.179D-06-0.163D-06 0.106D-05 0.337D-05 0.562D-05
 Coeff:      0.692D-05-0.536D-05-0.747D-04-0.330D-03-0.466D-03 0.179D-02
 Coeff:      0.286D-02 0.285D-02-0.174D-01-0.508D-01-0.407D-01 0.184D+00
 Coeff:      0.918D+00
 Gap=     0.291 Goal=   None    Shift=    0.000
 RMSDP=3.67D-08 MaxDP=2.53D-06 DE= 1.27D-11 OVMax= 1.44D-06

 Cycle  20  Pass 1  IDiag  1:
 RMSU=  1.53D-08    CP:  2.11D-01  9.93D-02  4.90D-01  1.05D+00  1.10D+00
                    CP:  1.14D+00  1.16D+00  1.31D+00  1.51D+00  1.29D+00
                    CP:  1.77D+00  1.67D+00  1.69D+00  1.46D+00  1.61D+00
                    CP:  1.54D+00  2.35D+00  2.76D+00  2.73D+00
 E= -3019.53245408226     Delta-E=       -0.000000000302 Rises=F Damp=F
 DIIS: error= 1.08D-07 at cycle  20 NSaved=  20.
 NSaved=20 IEnMin=20 EnMin= -3019.53245408226     IErMin=18 ErrMin= 4.29D-08
 ErrMax= 1.08D-07  0.00D+00 EMaxC= 1.00D-01 BMatC= 1.07D-12 BMatP= 1.76D-12
 IDIUse=1 WtCom= 1.00D+00 WtEn= 0.00D+00
 Coeff-Com:  0.134D-06-0.138D-06-0.692D-07 0.459D-06 0.111D-05 0.387D-05
 Coeff-Com:  0.267D-05-0.686D-05-0.145D-04-0.695D-04-0.219D-03 0.232D-03
 Coeff-Com:  0.966D-03 0.350D-02-0.454D-02-0.280D-01-0.464D-01 0.582D-01
 Coeff-Com:  0.510D+00 0.506D+00
 Coeff:      0.134D-06-0.138D-06-0.692D-07 0.459D-06 0.111D-05 0.387D-05
 Coeff:      0.267D-05-0.686D-05-0.145D-04-0.695D-04-0.219D-03 0.232D-03
 Coeff:      0.966D-03 0.350D-02-0.454D-02-0.280D-01-0.464D-01 0.582D-01
 Coeff:      0.510D+00 0.506D+00
 Gap=     0.291 Goal=   None    Shift=    0.000
 RMSDP=3.33D-08 MaxDP=2.71D-06 DE=-3.02D-10 OVMax= 2.39D-07

 Cycle  21  Pass 1  IDiag  1:
 Restarting incremental Fock formation.
 E= -3019.53245408326     Delta-E=       -0.000000000995 Rises=F Damp=F
 DIIS: error= 1.48D-07 at cycle  21 NSaved=  20.
 NSaved=20 IEnMin=20 EnMin= -3019.53245408326     IErMin=17 ErrMin= 4.29D-08
 ErrMax= 1.48D-07  0.00D+00 EMaxC= 1.00D-01 BMatC= 9.99D-12 BMatP= 1.07D-12
 IDIUse=1 WtCom= 1.00D+00 WtEn= 0.00D+00
 Coeff-Com:  0.247D-07-0.541D-07 0.407D-06 0.720D-06 0.399D-05 0.125D-05
 Coeff-Com: -0.945D-05 0.674D-05 0.214D-04-0.146D-03-0.346D-03 0.367D-03
 Coeff-Com:  0.400D-02-0.178D-03-0.213D-01-0.508D-01 0.170D-01 0.383D+00
 Coeff-Com:  0.525D+00 0.143D+00
 Coeff:      0.247D-07-0.541D-07 0.407D-06 0.720D-06 0.399D-05 0.125D-05
 Coeff:     -0.945D-05 0.674D-05 0.214D-04-0.146D-03-0.346D-03 0.367D-03
 Coeff:      0.400D-02-0.178D-03-0.213D-01-0.508D-01 0.170D-01 0.383D+00
 Coeff:      0.525D+00 0.143D+00
 Gap=     0.291 Goal=   None    Shift=    0.000
 RMSDP=2.13D-08 MaxDP=2.51D-06 DE=-9.95D-10 OVMax= 1.03D-07

 Cycle  22  Pass 1  IDiag  1:
 RMSU=  2.12D-08    CP:  1.00D+00
 E= -3019.53245408267     Delta-E=        0.000000000589 Rises=F Damp=F
 DIIS: error= 1.54D-07 at cycle  22 NSaved=  20.
 NSaved=20 IEnMin=19 EnMin= -3019.53245408326     IErMin=16 ErrMin= 4.29D-08
 ErrMax= 1.54D-07  0.00D+00 EMaxC= 1.00D-01 BMatC= 8.00D-12 BMatP= 1.07D-12
 IDIUse=1 WtCom= 1.00D+00 WtEn= 0.00D+00
 Coeff-Com: -0.333D-07 0.842D-07-0.332D-06 0.169D-05 0.149D-06-0.849D-06
 Coeff-Com:  0.180D-04 0.515D-04-0.762D-04-0.493D-03-0.639D-04 0.275D-02
 Coeff-Com:  0.234D-02-0.994D-02-0.355D-01-0.140D-01 0.183D+00 0.584D+00
 Coeff-Com: -0.136D+01 0.164D+01
 Coeff:     -0.333D-07 0.842D-07-0.332D-06 0.169D-05 0.149D-06-0.849D-06
 Coeff:      0.180D-04 0.515D-04-0.762D-04-0.493D-03-0.639D-04 0.275D-02
 Coeff:      0.234D-02-0.994D-02-0.355D-01-0.140D-01 0.183D+00 0.584D+00
 Coeff:     -0.136D+01 0.164D+01
 Gap=     0.291 Goal=   None    Shift=    0.000
 RMSDP=3.41D-08 MaxDP=2.51D-06 DE= 5.89D-10 OVMax= 1.68D-07

 Cycle  23  Pass 1  IDiag  1:
 RMSU=  2.33D-08    CP:  1.00D+00  2.18D+00
 E= -3019.53245408274     Delta-E=       -0.000000000067 Rises=F Damp=F
 DIIS: error= 1.59D-07 at cycle  23 NSaved=  20.
 NSaved=20 IEnMin=18 EnMin= -3019.53245408326     IErMin=15 ErrMin= 4.29D-08
 ErrMax= 1.59D-07  0.00D+00 EMaxC= 1.00D-01 BMatC= 6.45D-12 BMatP= 1.07D-12
 IDIUse=1 WtCom= 1.00D+00 WtEn= 0.00D+00
 Coeff-Com:  0.867D-07-0.296D-06 0.106D-05-0.121D-05-0.278D-05 0.203D-04
 Coeff-Com:  0.647D-04-0.462D-04-0.507D-03-0.154D-03 0.232D-02 0.259D-02
 Coeff-Com: -0.738D-02-0.301D-01-0.148D-01 0.148D+00 0.566D+00-0.104D+01
 Coeff-Com:  0.476D+00 0.898D+00
 Coeff:      0.867D-07-0.296D-06 0.106D-05-0.121D-05-0.278D-05 0.203D-04
 Coeff:      0.647D-04-0.462D-04-0.507D-03-0.154D-03 0.232D-02 0.259D-02
 Coeff:     -0.738D-02-0.301D-01-0.148D-01 0.148D+00 0.566D+00-0.104D+01
 Coeff:      0.476D+00 0.898D+00
 Gap=     0.291 Goal=   None    Shift=    0.000
 RMSDP=2.60D-08 MaxDP=2.05D-06 DE=-6.73D-11 OVMax= 7.58D-08

 Cycle  24  Pass 1  IDiag  1:
 RMSU=  1.55D-08    CP:  1.00D+00  2.91D+00  1.60D+00
 E= -3019.53245408293     Delta-E=       -0.000000000196 Rises=F Damp=F
 DIIS: error= 1.74D-07 at cycle  24 NSaved=  20.
 NSaved=20 IEnMin=17 EnMin= -3019.53245408326     IErMin=14 ErrMin= 4.29D-08
 ErrMax= 1.74D-07  0.00D+00 EMaxC= 1.00D-01 BMatC= 5.94D-12 BMatP= 1.07D-12
 IDIUse=1 WtCom= 1.00D+00 WtEn= 0.00D+00
 Coeff-Com: -0.398D-06 0.129D-05-0.841D-06-0.429D-05 0.225D-04 0.825D-04
 Coeff-Com: -0.263D-04-0.605D-03-0.265D-03 0.243D-02 0.317D-02-0.688D-02
 Coeff-Com: -0.312D-01-0.178D-01 0.145D+00 0.572D+00-0.860D+00 0.255D+00
 Coeff-Com:  0.531D+00 0.408D+00
 Coeff:     -0.398D-06 0.129D-05-0.841D-06-0.429D-05 0.225D-04 0.825D-04
 Coeff:     -0.263D-04-0.605D-03-0.265D-03 0.243D-02 0.317D-02-0.688D-02
 Coeff:     -0.312D-01-0.178D-01 0.145D+00 0.572D+00-0.860D+00 0.255D+00
 Coeff:      0.531D+00 0.408D+00
 Gap=     0.291 Goal=   None    Shift=    0.000
 RMSDP=1.00D-08 MaxDP=6.87D-07 DE=-1.96D-10 OVMax= 1.47D-08

 Cycle  25  Pass 1  IDiag  1:
 RMSU=  5.58D-09    CP:  1.00D+00  3.00D+00  1.83D+00  1.38D+00
 E= -3019.53245408281     Delta-E=        0.000000000126 Rises=F Damp=F
 DIIS: error= 1.91D-07 at cycle  25 NSaved=  20.
 NSaved=20 IEnMin=16 EnMin= -3019.53245408326     IErMin=13 ErrMin= 4.29D-08
 ErrMax= 1.91D-07  0.00D+00 EMaxC= 1.00D-01 BMatC= 6.22D-12 BMatP= 1.07D-12
 IDIUse=1 WtCom= 1.00D+00 WtEn= 0.00D+00
 Coeff-Com:  0.164D-05 0.303D-06-0.741D-05 0.674D-05 0.578D-04 0.414D-05
 Coeff-Com: -0.365D-03-0.184D-03 0.180D-02 0.189D-02-0.696D-02-0.270D-01
 Coeff-Com: -0.117D-01 0.145D+00 0.566D+00-0.851D+00 0.254D+00 0.516D+00
 Coeff-Com:  0.327D+00 0.843D-01
 Coeff:      0.164D-05 0.303D-06-0.741D-05 0.674D-05 0.578D-04 0.414D-05
 Coeff:     -0.365D-03-0.184D-03 0.180D-02 0.189D-02-0.696D-02-0.270D-01
 Coeff:     -0.117D-01 0.145D+00 0.566D+00-0.851D+00 0.254D+00 0.516D+00
 Coeff:      0.327D+00 0.843D-01
 Gap=     0.291 Goal=   None    Shift=    0.000
 RMSDP=1.57D-09 MaxDP=1.24D-07 DE= 1.26D-10 OVMax= 9.32D-09

 Error on total polarization charges =  0.04844
 SCF Done:  E(RwB97XD) =  -3019.53245408     A.U. after   25 cycles
            NFock= 25  Conv=0.16D-08     -V/T= 2.0308
 KE= 2.929218586732D+03 PE=-1.940712776628D+04 EE= 7.297172923181D+03
 SMD-CDS (non-electrostatic) energy       (kcal/mol) =      -4.63
 (included in total energy above)
 Leave Link  502 at Tue Nov 28 20:35:15 2023, MaxMem=  2147483648 cpu:     75235.1
 (Enter /cluster/apps/gaussian/g09/l601.exe)
 Copying SCF densities to generalized density rwf, IOpCl= 0 IROHF=0.

 **********************************************************************

            Population analysis using the SCF density.

 **********************************************************************

 Orbital symmetries:
       Occupied  (A) (A) (A) (A) (A) (A) (A) (A) (A) (A) (A) (A)
                 (A) (A) (A) (A) (A) (A) (A) (A) (A) (A) (A) (A)
                 (A) (A) (A) (A) (A) (A) (A) (A) (A) (A) (A) (A)
                 (A) (A) (A) (A) (A) (A) (A) (A) (A) (A) (A) (A)
                 (A) (A) (A) (A) (A) (A) (A) (A) (A) (A) (A) (A)
                 (A) (A) (A) (A) (A) (A) (A) (A) (A) (A) (A) (A)
                 (A) (A) (A) (A) (A) (A) (A) (A) (A) (A) (A) (A)
                 (A) (A) (A) (A) (A) (A) (A) (A) (A) (A) (A) (A)
                 (A) (A) (A) (A) (A) (A) (A) (A) (A) (A) (A) (A)
                 (A) (A) (A) (A) (A) (A) (A) (A) (A) (A) (A) (A)
                 (A) (A) (A) (A) (A) (A) (A) (A) (A) (A) (A) (A)
                 (A) (A) (A) (A) (A) (A) (A) (A) (A) (A) (A) (A)
                 (A) (A) (A) (A) (A) (A) (A) (A) (A) (A) (A) (A)
                 (A) (A) (A) (A) (A) (A)
       Virtual   (A) (A) (A) (A) (A) (A) (A) (A) (A) (A) (A) (A)
                 (A) (A) (A) (A) (A) (A) (A) (A) (A) (A) (A) (A)
                 (A) (A) (A) (A) (A) (A) (A) (A) (A) (A) (A) (A)
                 (A) (A) (A) (A) (A) (A) (A) (A) (A) (A) (A) (A)
                 (A) (A) (A) (A) (A) (A) (A) (A) (A) (A) (A) (A)
                 (A) (A) (A) (A) (A) (A) (A) (A) (A) (A) (A) (A)
                 (A) (A) (A) (A) (A) (A) (A) (A) (A) (A) (A) (A)
                 (A) (A) (A) (A) (A) (A) (A) (A) (A) (A) (A) (A)
                 (A) (A) (A) (A) (A) (A) (A) (A) (A) (A) (A) (A)
                 (A) (A) (A) (A) (A) (A) (A) (A) (A) (A) (A) (A)
                 (A) (A) (A) (A) (A) (A) (A) (A) (A) (A) (A) (A)
                 (A) (A) (A) (A) (A) (A) (A) (A) (A) (A) (A) (A)
                 (A) (A) (A) (A) (A) (A) (A) (A) (A) (A) (A) (A)
                 (A) (A) (A) (A) (A) (A) (A) (A) (A) (A) (A) (A)
                 (A) (A) (A) (A) (A) (A) (A) (A) (A) (A) (A) (A)
                 (A) (A) (A) (A) (A) (A) (A) (A) (A) (A) (A) (A)
                 (A) (A) (A) (A) (A) (A) (A) (A) (A) (A) (A) (A)
                 (A) (A) (A) (A) (A) (A) (A) (A) (A) (A) (A) (A)
                 (A) (A) (A) (A) (A) (A) (A) (A) (A) (A) (A) (A)
                 (A) (A) (A) (A) (A) (A) (A) (A) (A) (A) (A) (A)
                 (A) (A) (A) (A) (A) (A) (A) (A) (A) (A) (A) (A)
                 (A) (A) (A) (A) (A) (A) (A) (A) (A) (A) (A) (A)
                 (A) (A) (A) (A) (A) (A) (A) (A) (A) (A) (A) (A)
                 (A) (A) (A) (A) (A) (A) (A) (A) (A) (A) (A) (A)
                 (A) (A) (A) (A) (A) (A) (A) (A) (A) (A) (A) (A)
                 (A) (A) (A) (A) (A) (A) (A) (A) (A) (A) (A) (A)
                 (A) (A) (A) (A) (A) (A) (A) (A) (A) (A) (A) (A)
                 (A) (A) (A) (A) (A) (A) (A) (A) (A) (A) (A) (A)
                 (A) (A) (A) (A) (A) (A) (A) (A) (A) (A) (A) (A)
                 (A) (A) (A) (A) (A) (A) (A) (A) (A) (A) (A) (A)
                 (A) (A) (A) (A) (A) (A) (A) (A) (A) (A) (A) (A)
                 (A) (A) (A) (A) (A) (A) (A) (A) (A) (A) (A) (A)
                 (A) (A) (A) (A) (A) (A) (A) (A) (A) (A) (A) (A)
                 (A) (A) (A) (A) (A) (A) (A) (A) (A) (A) (A) (A)
                 (A) (A) (A) (A) (A) (A) (A) (A) (A) (A) (A) (A)
                 (A) (A) (A) (A) (A) (A) (A) (A) (A) (A) (A) (A)
                 (A) (A) (A) (A) (A) (A) (A) (A) (A) (A) (A) (A)
                 (A) (A) (A) (A) (A) (A) (A) (A) (A) (A) (A) (A)
                 (A) (A) (A) (A) (A) (A) (A) (A) (A) (A) (A) (A)
                 (A) (A) (A) (A) (A) (A) (A) (A) (A) (A) (A) (A)
                 (A) (A) (A) (A) (A) (A) (A) (A) (A) (A) (A) (A)
                 (A) (A) (A) (A) (A) (A) (A) (A) (A) (A) (A) (A)
                 (A) (A) (A) (A) (A) (A) (A) (A) (A) (A) (A) (A)
                 (A) (A) (A) (A) (A) (A) (A) (A) (A) (A) (A) (A)
                 (A) (A) (A) (A) (A) (A) (A) (A) (A) (A) (A) (A)
                 (A) (A) (A) (A) (A) (A) (A) (A) (A) (A) (A) (A)
                 (A) (A) (A) (A) (A) (A) (A) (A) (A) (A) (A) (A)
                 (A) (A) (A) (A) (A) (A) (A) (A) (A) (A) (A) (A)
                 (A) (A) (A) (A) (A) (A) (A) (A) (A) (A) (A) (A)
                 (A) (A) (A) (A) (A) (A) (A) (A) (A) (A) (A) (A)
                 (A) (A) (A) (A) (A) (A) (A) (A) (A) (A) (A) (A)
                 (A) (A) (A) (A) (A) (A) (A) (A) (A) (A) (A) (A)
                 (A) (A) (A) (A) (A) (A) (A) (A) (A) (A) (A) (A)
                 (A) (A) (A) (A) (A) (A) (A) (A) (A) (A) (A) (A)
                 (A) (A) (A) (A) (A) (A) (A) (A) (A) (A) (A) (A)
                 (A) (A) (A) (A) (A) (A) (A) (A) (A) (A) (A) (A)
                 (A) (A) (A) (A) (A) (A) (A) (A) (A) (A) (A) (A)
                 (A) (A) (A) (A) (A) (A) (A) (A) (A) (A) (A) (A)
                 (A) (A) (A) (A) (A) (A) (A) (A) (A) (A) (A) (A)
                 (A) (A) (A) (A) (A) (A) (A) (A) (A) (A) (A) (A)
                 (A) (A) (A) (A) (A) (A) (A) (A) (A) (A) (A) (A)
                 (A) (A) (A) (A) (A) (A) (A) (A) (A) (A) (A) (A)
                 (A) (A) (A) (A) (A) (A) (A) (A) (A) (A) (A) (A)
                 (A) (A) (A) (A) (A) (A) (A) (A) (A) (A) (A) (A)
                 (A) (A) (A) (A) (A) (A) (A) (A) (A) (A) (A) (A)
                 (A) (A) (A) (A) (A) (A) (A) (A) (A) (A) (A) (A)
                 (A) (A) (A) (A) (A) (A) (A) (A) (A) (A) (A) (A)
                 (A) (A) (A) (A) (A) (A) (A) (A) (A) (A) (A) (A)
                 (A) (A) (A) (A) (A) (A) (A) (A) (A) (A) (A) (A)
                 (A) (A) (A) (A) (A) (A) (A) (A) (A) (A) (A) (A)
                 (A) (A) (A) (A) (A) (A) (A) (A) (A) (A) (A) (A)
                 (A) (A) (A) (A) (A) (A) (A) (A) (A) (A) (A) (A)
                 (A) (A) (A) (A) (A) (A) (A) (A) (A) (A) (A) (A)
                 (A) (A) (A) (A) (A) (A) (A) (A) (A) (A) (A) (A)
                 (A) (A) (A) (A) (A) (A) (A) (A) (A) (A) (A) (A)
                 (A) (A) (A) (A) (A) (A) (A) (A) (A) (A) (A) (A)
                 (A) (A) (A) (A) (A) (A) (A) (A) (A) (A) (A) (A)
                 (A) (A) (A) (A) (A) (A) (A) (A) (A) (A) (A) (A)
                 (A) (A) (A) (A) (A) (A) (A) (A) (A) (A) (A) (A)
                 (A) (A) (A) (A) (A) (A) (A) (A) (A) (A) (A) (A)
                 (A) (A) (A) (A) (A) (A) (A) (A) (A) (A) (A) (A)
                 (A) (A) (A) (A) (A) (A) (A) (A) (A) (A) (A) (A)
                 (A) (A) (A) (A) (A) (A) (A) (A) (A) (A) (A) (A)
                 (A) (A) (A) (A) (A) (A) (A) (A) (A) (A) (A) (A)
                 (A) (A) (A) (A) (A) (A) (A) (A) (A) (A) (A) (A)
                 (A) (A) (A) (A) (A) (A) (A) (A) (A) (A) (A) (A)
                 (A) (A) (A) (A) (A) (A) (A) (A) (A) (A) (A) (A)
                 (A) (A) (A) (A) (A) (A) (A) (A) (A) (A) (A) (A)
                 (A) (A) (A) (A) (A) (A) (A) (A) (A) (A) (A) (A)
                 (A) (A) (A) (A) (A) (A) (A) (A) (A) (A) (A) (A)
                 (A) (A) (A) (A) (A) (A) (A) (A) (A) (A) (A) (A)
                 (A) (A) (A) (A) (A) (A) (A) (A) (A) (A) (A) (A)
                 (A) (A) (A) (A) (A) (A) (A) (A) (A) (A) (A) (A)
                 (A) (A) (A) (A) (A) (A) (A) (A) (A) (A) (A) (A)
                 (A) (A) (A) (A) (A) (A) (A) (A) (A) (A) (A) (A)
                 (A) (A) (A) (A) (A) (A) (A) (A) (A) (A) (A) (A)
                 (A) (A) (A) (A) (A) (A) (A) (A) (A) (A) (A) (A)
                 (A) (A) (A) (A) (A) (A) (A) (A) (A) (A) (A) (A)
                 (A) (A) (A) (A) (A) (A) (A) (A) (A) (A) (A) (A)
                 (A) (A) (A) (A) (A) (A) (A) (A) (A) (A) (A) (A)
                 (A) (A) (A) (A) (A) (A) (A) (A) (A) (A) (A) (A)
                 (A) (A) (A) (A) (A) (A) (A) (A) (A) (A) (A) (A)
                 (A) (A) (A) (A) (A) (A) (A) (A) (A) (A) (A) (A)
                 (A) (A) (A) (A) (A) (A) (A) (A) (A) (A) (A) (A)
                 (A) (A) (A) (A) (A)
 The electronic state is 1-A.
 Alpha  occ. eigenvalues -- -101.69708 -89.21541 -77.23843 -24.84519 -24.84325
 Alpha  occ. eigenvalues --  -24.83824 -24.83523 -19.27962 -19.23849 -19.23673
 Alpha  occ. eigenvalues --  -14.43955 -10.39295 -10.38948 -10.38869 -10.38333
 Alpha  occ. eigenvalues --  -10.36094 -10.34859 -10.34563 -10.32604 -10.31817
 Alpha  occ. eigenvalues --  -10.31781 -10.31578 -10.31531 -10.30954 -10.30159
 Alpha  occ. eigenvalues --  -10.28529 -10.28488 -10.28477 -10.28403 -10.27388
 Alpha  occ. eigenvalues --  -10.27375 -10.27364 -10.27350 -10.27285 -10.27251
 Alpha  occ. eigenvalues --  -10.27232 -10.26758  -9.58260  -8.21620  -7.32926
 Alpha  occ. eigenvalues --   -7.32039  -7.31996  -6.68284  -6.16471  -6.16379
 Alpha  occ. eigenvalues --   -6.16341  -4.82956  -4.82921  -4.82688  -3.57776
 Alpha  occ. eigenvalues --   -2.26543  -2.25967  -2.22985  -1.37042  -1.36077
 Alpha  occ. eigenvalues --   -1.35042  -1.34636  -1.20655  -1.17571  -1.09826
 Alpha  occ. eigenvalues --   -1.02906  -0.97340  -0.96600  -0.95610  -0.93797
 Alpha  occ. eigenvalues --   -0.91246  -0.91033  -0.89140  -0.86107  -0.85381
 Alpha  occ. eigenvalues --   -0.83513  -0.80812  -0.79619  -0.78887  -0.78600
 Alpha  occ. eigenvalues --   -0.78388  -0.78331  -0.78000  -0.77045  -0.75655
 Alpha  occ. eigenvalues --   -0.75520  -0.74706  -0.70911  -0.69766  -0.68828
 Alpha  occ. eigenvalues --   -0.66877  -0.66012  -0.64833  -0.64699  -0.64501
 Alpha  occ. eigenvalues --   -0.63145  -0.62193  -0.61847  -0.61279  -0.61069
 Alpha  occ. eigenvalues --   -0.59529  -0.58526  -0.57908  -0.57421  -0.56584
 Alpha  occ. eigenvalues --   -0.56328  -0.56105  -0.55826  -0.55803  -0.55616
 Alpha  occ. eigenvalues --   -0.55084  -0.54646  -0.54009  -0.53830  -0.53674
 Alpha  occ. eigenvalues --   -0.53496  -0.53240  -0.52294  -0.52124  -0.51694
 Alpha  occ. eigenvalues --   -0.51552  -0.51410  -0.50768  -0.50456  -0.49598
 Alpha  occ. eigenvalues --   -0.49171  -0.48483  -0.48019  -0.47941  -0.47539
 Alpha  occ. eigenvalues --   -0.47168  -0.46827  -0.46300  -0.46089  -0.45765
 Alpha  occ. eigenvalues --   -0.45378  -0.45131  -0.44696  -0.44413  -0.44316
 Alpha  occ. eigenvalues --   -0.43694  -0.43159  -0.43008  -0.42738  -0.42423
 Alpha  occ. eigenvalues --   -0.42011  -0.41874  -0.41281  -0.40886  -0.40741
 Alpha  occ. eigenvalues --   -0.39901  -0.39777  -0.39409  -0.39113  -0.38750
 Alpha  occ. eigenvalues --   -0.37987  -0.37269  -0.37019  -0.36352  -0.35578
 Alpha  occ. eigenvalues --   -0.35219  -0.34106  -0.33849  -0.31003  -0.30936
 Alpha  occ. eigenvalues --   -0.29206  -0.27961
 Alpha virt. eigenvalues --    0.01107   0.02194   0.05400   0.06375   0.07571
 Alpha virt. eigenvalues --    0.08607   0.08762   0.10003   0.10343   0.10890
 Alpha virt. eigenvalues --    0.11407   0.12374   0.12500   0.13002   0.13448
 Alpha virt. eigenvalues --    0.14194   0.14441   0.14943   0.15171   0.15441
 Alpha virt. eigenvalues --    0.15761   0.15893   0.16187   0.16293   0.16576
 Alpha virt. eigenvalues --    0.17054   0.17354   0.17555   0.18222   0.18375
 Alpha virt. eigenvalues --    0.18835   0.19031   0.19341   0.19557   0.19747
 Alpha virt. eigenvalues --    0.19872   0.20118   0.20583   0.20813   0.20955
 Alpha virt. eigenvalues --    0.21348   0.21742   0.22036   0.22132   0.22328
 Alpha virt. eigenvalues --    0.22738   0.23026   0.23433   0.23686   0.23911
 Alpha virt. eigenvalues --    0.24131   0.24236   0.24662   0.25248   0.25489
 Alpha virt. eigenvalues --    0.25632   0.25991   0.26139   0.26407   0.26710
 Alpha virt. eigenvalues --    0.26867   0.27218   0.27398   0.27678   0.27996
 Alpha virt. eigenvalues --    0.28326   0.28741   0.28881   0.29427   0.29513
 Alpha virt. eigenvalues --    0.29800   0.29864   0.30330   0.30642   0.31047
 Alpha virt. eigenvalues --    0.31490   0.31578   0.32010   0.32086   0.32548
 Alpha virt. eigenvalues --    0.33125   0.33231   0.33632   0.33827   0.34119
 Alpha virt. eigenvalues --    0.34568   0.34945   0.35003   0.35510   0.35873
 Alpha virt. eigenvalues --    0.36174   0.36615   0.36915   0.36973   0.37406
 Alpha virt. eigenvalues --    0.37603   0.37918   0.38170   0.38437   0.38582
 Alpha virt. eigenvalues --    0.38756   0.39261   0.39491   0.39908   0.40122
 Alpha virt. eigenvalues --    0.40765   0.41020   0.41113   0.41561   0.41945
 Alpha virt. eigenvalues --    0.42049   0.42201   0.42813   0.43311   0.43549
 Alpha virt. eigenvalues --    0.43934   0.44057   0.44317   0.44503   0.44901
 Alpha virt. eigenvalues --    0.45110   0.45423   0.45721   0.45953   0.46128
 Alpha virt. eigenvalues --    0.46514   0.46890   0.47008   0.47201   0.47392
 Alpha virt. eigenvalues --    0.47808   0.47918   0.48260   0.48523   0.48574
 Alpha virt. eigenvalues --    0.48798   0.48942   0.49683   0.49967   0.50193
 Alpha virt. eigenvalues --    0.50368   0.50444   0.50787   0.51067   0.51231
 Alpha virt. eigenvalues --    0.51415   0.51647   0.51770   0.51974   0.52105
 Alpha virt. eigenvalues --    0.52256   0.52359   0.52414   0.52798   0.52916
 Alpha virt. eigenvalues --    0.53146   0.53411   0.53641   0.53724   0.53982
 Alpha virt. eigenvalues --    0.54208   0.54641   0.54938   0.55099   0.55224
 Alpha virt. eigenvalues --    0.55429   0.55517   0.55672   0.55848   0.56080
 Alpha virt. eigenvalues --    0.56405   0.56627   0.56920   0.57071   0.57347
 Alpha virt. eigenvalues --    0.58019   0.58253   0.58476   0.58740   0.58983
 Alpha virt. eigenvalues --    0.59418   0.59510   0.59769   0.60087   0.60173
 Alpha virt. eigenvalues --    0.60498   0.60818   0.61675   0.61755   0.62544
 Alpha virt. eigenvalues --    0.62720   0.63100   0.63413   0.63700   0.63810
 Alpha virt. eigenvalues --    0.64305   0.64701   0.65081   0.65451   0.65724
 Alpha virt. eigenvalues --    0.65824   0.66306   0.66744   0.67000   0.67288
 Alpha virt. eigenvalues --    0.67345   0.67912   0.68236   0.68889   0.69198
 Alpha virt. eigenvalues --    0.69432   0.69611   0.69943   0.70272   0.70647
 Alpha virt. eigenvalues --    0.71006   0.71150   0.71304   0.71676   0.71815
 Alpha virt. eigenvalues --    0.72267   0.72591   0.72920   0.73515   0.74000
 Alpha virt. eigenvalues --    0.74107   0.74586   0.74790   0.75153   0.75519
 Alpha virt. eigenvalues --    0.75950   0.76131   0.76647   0.76882   0.77179
 Alpha virt. eigenvalues --    0.77635   0.78071   0.78180   0.78585   0.78798
 Alpha virt. eigenvalues --    0.78960   0.79737   0.80212   0.80407   0.80920
 Alpha virt. eigenvalues --    0.81352   0.81789   0.81964   0.82275   0.82797
 Alpha virt. eigenvalues --    0.83266   0.83653   0.84160   0.84522   0.84790
 Alpha virt. eigenvalues --    0.85210   0.85408   0.85862   0.86490   0.86653
 Alpha virt. eigenvalues --    0.87319   0.87437   0.87791   0.88003   0.88473
 Alpha virt. eigenvalues --    0.88540   0.88930   0.89117   0.89660   0.90244
 Alpha virt. eigenvalues --    0.90641   0.90831   0.91100   0.92325   0.92556
 Alpha virt. eigenvalues --    0.92687   0.93456   0.93867   0.94138   0.94201
 Alpha virt. eigenvalues --    0.94542   0.95084   0.95352   0.95586   0.96122
 Alpha virt. eigenvalues --    0.96437   0.96713   0.97020   0.97348   0.97961
 Alpha virt. eigenvalues --    0.98102   0.98993   0.99116   0.99348   0.99776
 Alpha virt. eigenvalues --    1.00390   1.00599   1.00954   1.01160   1.01595
 Alpha virt. eigenvalues --    1.01640   1.02480   1.02800   1.02896   1.03247
 Alpha virt. eigenvalues --    1.04009   1.04289   1.04466   1.04587   1.05171
 Alpha virt. eigenvalues --    1.05353   1.05607   1.05884   1.06929   1.07334
 Alpha virt. eigenvalues --    1.07546   1.07845   1.08476   1.09124   1.09584
 Alpha virt. eigenvalues --    1.10459   1.10906   1.11018   1.11658   1.11981
 Alpha virt. eigenvalues --    1.12327   1.13016   1.13379   1.13739   1.14108
 Alpha virt. eigenvalues --    1.14587   1.15273   1.15606   1.15960   1.16558
 Alpha virt. eigenvalues --    1.16909   1.17199   1.17567   1.17803   1.18369
 Alpha virt. eigenvalues --    1.18597   1.19268   1.19610   1.20466   1.20609
 Alpha virt. eigenvalues --    1.20786   1.21632   1.21923   1.22147   1.22540
 Alpha virt. eigenvalues --    1.22760   1.22980   1.23735   1.24237   1.24609
 Alpha virt. eigenvalues --    1.25058   1.25433   1.25804   1.26334   1.26752
 Alpha virt. eigenvalues --    1.27326   1.27912   1.28314   1.28863   1.29150
 Alpha virt. eigenvalues --    1.29571   1.29813   1.30849   1.31304   1.31530
 Alpha virt. eigenvalues --    1.31946   1.32571   1.32867   1.33065   1.33458
 Alpha virt. eigenvalues --    1.33897   1.34983   1.35255   1.35756   1.36056
 Alpha virt. eigenvalues --    1.36461   1.36844   1.37654   1.38345   1.39415
 Alpha virt. eigenvalues --    1.39652   1.40220   1.40412   1.40928   1.41288
 Alpha virt. eigenvalues --    1.41833   1.42392   1.42961   1.43526   1.44199
 Alpha virt. eigenvalues --    1.44793   1.45135   1.45646   1.46450   1.46952
 Alpha virt. eigenvalues --    1.47386   1.47921   1.48657   1.49613   1.49833
 Alpha virt. eigenvalues --    1.50554   1.51215   1.51547   1.52457   1.53104
 Alpha virt. eigenvalues --    1.53560   1.54484   1.54897   1.55517   1.56082
 Alpha virt. eigenvalues --    1.56140   1.57228   1.57295   1.57851   1.57931
 Alpha virt. eigenvalues --    1.58566   1.58728   1.59194   1.59637   1.60187
 Alpha virt. eigenvalues --    1.60729   1.61167   1.61424   1.61815   1.62475
 Alpha virt. eigenvalues --    1.62789   1.63581   1.63879   1.64495   1.64680
 Alpha virt. eigenvalues --    1.64910   1.65550   1.66219   1.66688   1.67085
 Alpha virt. eigenvalues --    1.67170   1.67545   1.67880   1.68468   1.68760
 Alpha virt. eigenvalues --    1.69135   1.69415   1.69510   1.69951   1.70682
[...]
 Alpha virt. eigenvalues --    2.04050   2.04548   2.04678   2.05505   2.05536
 Alpha virt. eigenvalues --    2.06213   2.06476   2.06612   2.07302   2.07480
 Alpha virt. eigenvalues --    2.08097   2.08781   2.08879   2.09267   2.09920
 Alpha virt. eigenvalues --    2.10301   2.10653   2.10940   2.11328   2.11491
 Alpha virt. eigenvalues --    2.11968   2.12261   2.12527   2.12777   2.13388
 Alpha virt. eigenvalues --    2.13862   2.14315   2.14737   2.15661   2.15970
 Alpha virt. eigenvalues --    2.16316   2.16649   2.17366   2.17643   2.18350
 Alpha virt. eigenvalues --    2.18876   2.19512   2.20387   2.20534   2.21204
 Alpha virt. eigenvalues --    2.21363   2.21743   2.22146   2.23081   2.24063
 Alpha virt. eigenvalues --    2.24438   2.25033   2.25206   2.26067   2.26368
 Alpha virt. eigenvalues --    2.26869   2.27357   2.27791   2.27857   2.28054
 Alpha virt. eigenvalues --    2.28944   2.29350   2.29811   2.30142   2.30982
 Alpha virt. eigenvalues --    2.31199   2.31371   2.31715   2.32379   2.33292
 Alpha virt. eigenvalues --    2.33504   2.33943   2.34188   2.34874   2.35058
 Alpha virt. eigenvalues --    2.35406   2.35636   2.36100   2.36693   2.37375
 Alpha virt. eigenvalues --    2.37551   2.38370   2.38741   2.39504   2.39644
 Alpha virt. eigenvalues --    2.40201   2.40647   2.40766   2.41171   2.41564
 Alpha virt. eigenvalues --    2.41860   2.42255   2.42470   2.43462   2.43687
 Alpha virt. eigenvalues --    2.44143   2.44744   2.45122   2.45621   2.45772
 Alpha virt. eigenvalues --    2.46283   2.46546   2.46678   2.47056   2.47529
 Alpha virt. eigenvalues --    2.47934   2.48005   2.48322   2.48499   2.49120
 Alpha virt. eigenvalues --    2.49576   2.50003   2.50688   2.51003   2.51444
 Alpha virt. eigenvalues --    2.51767   2.52422   2.52517   2.53008   2.53191
 Alpha virt. eigenvalues --    2.53578   2.53935   2.54382   2.54995   2.55548
 Alpha virt. eigenvalues --    2.55792   2.55948   2.56632   2.57336   2.57626
 Alpha virt. eigenvalues --    2.57771   2.58523   2.58973   2.59286   2.59523
 Alpha virt. eigenvalues --    2.59977   2.60079   2.60481   2.60921   2.61375
 Alpha virt. eigenvalues --    2.61422   2.61940   2.62278   2.62695   2.63107
 Alpha virt. eigenvalues --    2.63327   2.63525   2.64274   2.64431   2.64875
 Alpha virt. eigenvalues --    2.65253   2.65402   2.65978   2.66456   2.66608
 Alpha virt. eigenvalues --    2.66842   2.67044   2.67514   2.67609   2.68138
 Alpha virt. eigenvalues --    2.68606   2.69334   2.69686   2.69926   2.70371
 Alpha virt. eigenvalues --    2.70436   2.70795   2.71009   2.71353   2.72021
 Alpha virt. eigenvalues --    2.72114   2.72273   2.72413   2.72682   2.72956
 Alpha virt. eigenvalues --    2.73731   2.74489   2.74831   2.75022   2.75347
 Alpha virt. eigenvalues --    2.75560   2.76246   2.76607   2.77138   2.77450
 Alpha virt. eigenvalues --    2.77641   2.78015   2.78306   2.78825   2.79046
 Alpha virt. eigenvalues --    2.79353   2.79656   2.80174   2.80644   2.81055
 Alpha virt. eigenvalues --    2.81428   2.82264   2.82474   2.82837   2.83423
 Alpha virt. eigenvalues --    2.83658   2.84190   2.84337   2.84769   2.85399
 Alpha virt. eigenvalues --    2.86315   2.87046   2.87300   2.87967   2.88475
 Alpha virt. eigenvalues --    2.89223   2.89422   2.90443   2.90739   2.91748
 Alpha virt. eigenvalues --    2.92002   2.92151   2.92654   2.92952   2.93511
 Alpha virt. eigenvalues --    2.94123   2.94201   2.94290   2.95151   2.95527
 Alpha virt. eigenvalues --    2.96162   2.96273   2.96523   2.96879   2.97203
 Alpha virt. eigenvalues --    2.97455   2.98014   2.98314   2.98484   2.99025
 Alpha virt. eigenvalues --    2.99182   3.00021   3.00070   3.00584   3.00951
 Alpha virt. eigenvalues --    3.01918   3.02141   3.02605   3.02744   3.03305
 Alpha virt. eigenvalues --    3.03716   3.03965   3.04689   3.04932   3.05257
 Alpha virt. eigenvalues --    3.06003   3.06494   3.06856   3.07179   3.07592
 Alpha virt. eigenvalues --    3.08182   3.08482   3.09510   3.10046   3.10623
 Alpha virt. eigenvalues --    3.11189   3.12215   3.13366   3.14181   3.14401
 Alpha virt. eigenvalues --    3.14820   3.15285   3.15749   3.16136   3.16689
 Alpha virt. eigenvalues --    3.16976   3.17352   3.17874   3.18306   3.19354
 Alpha virt. eigenvalues --    3.19899   3.20640   3.20945   3.21364   3.22170
 Alpha virt. eigenvalues --    3.22659   3.22867   3.23183   3.23760   3.23954
 Alpha virt. eigenvalues --    3.24612   3.24904   3.25283   3.25907   3.26449
 Alpha virt. eigenvalues --    3.26638   3.26964   3.27643   3.27940   3.28439
 Alpha virt. eigenvalues --    3.28806   3.29016   3.29403   3.30020   3.30170
 Alpha virt. eigenvalues --    3.30851   3.31001   3.31326   3.31999   3.32632
 Alpha virt. eigenvalues --    3.32818   3.33219   3.33397   3.33689   3.34090
 Alpha virt. eigenvalues --    3.34888   3.35254   3.35782   3.36183   3.36398
 Alpha virt. eigenvalues --    3.36484   3.37338   3.37753   3.37827   3.38235
 Alpha virt. eigenvalues --    3.38549   3.39183   3.39351   3.40059   3.40389
 Alpha virt. eigenvalues --    3.40632   3.41070   3.41548   3.42043   3.42249
 Alpha virt. eigenvalues --    3.43280   3.43459   3.43887   3.44092   3.44482
 Alpha virt. eigenvalues --    3.44789   3.44992   3.45207   3.45547   3.45776
 Alpha virt. eigenvalues --    3.46566   3.46987   3.47262   3.47771   3.48008
 Alpha virt. eigenvalues --    3.48094   3.48781   3.48863   3.49498   3.50052
 Alpha virt. eigenvalues --    3.50408   3.50720   3.51234   3.51495   3.51998
 Alpha virt. eigenvalues --    3.52453   3.52714   3.52837   3.53301   3.53646
 Alpha virt. eigenvalues --    3.54001   3.54153   3.54248   3.54774   3.55095
 Alpha virt. eigenvalues --    3.55679   3.55863   3.56278   3.56595   3.57051
 Alpha virt. eigenvalues --    3.57445   3.57632   3.58097   3.58927   3.59116
 Alpha virt. eigenvalues --    3.59754   3.60009   3.60424   3.60925   3.61205
 Alpha virt. eigenvalues --    3.61258   3.61909   3.62490   3.62647   3.63488
 Alpha virt. eigenvalues --    3.63727   3.64261   3.64814   3.65328   3.65401
 Alpha virt. eigenvalues --    3.66188   3.66410   3.66903   3.67497   3.67886
 Alpha virt. eigenvalues --    3.68531   3.69562   3.69991   3.70676   3.71274
 Alpha virt. eigenvalues --    3.72049   3.72536   3.72752   3.73034   3.73295
 Alpha virt. eigenvalues --    3.73668   3.74380   3.75247   3.76249   3.76673
 Alpha virt. eigenvalues --    3.76729   3.77472   3.77711   3.77954   3.79050
 Alpha virt. eigenvalues --    3.80008   3.80188   3.80370   3.80742   3.81905
 Alpha virt. eigenvalues --    3.82546   3.83051   3.83436   3.84594   3.85862
 Alpha virt. eigenvalues --    3.86181   3.87182   3.87296   3.88249   3.88466
 Alpha virt. eigenvalues --    3.88747   3.89452   3.90213   3.91399   3.91595
 Alpha virt. eigenvalues --    3.92003   3.92463   3.93838   3.94944   3.95701
 Alpha virt. eigenvalues --    3.96643   3.98012   4.00213   4.01042   4.04716
 Alpha virt. eigenvalues --    4.05733   4.06338   4.08704   4.09174   4.09481
 Alpha virt. eigenvalues --    4.10012   4.10449   4.10792   4.11907   4.12889
 Alpha virt. eigenvalues --    4.13949   4.14212   4.15508   4.16174   4.17204
 Alpha virt. eigenvalues --    4.18196   4.19088   4.19341   4.19875   4.20008
 Alpha virt. eigenvalues --    4.20478   4.20806   4.21129   4.21373   4.21652
 Alpha virt. eigenvalues --    4.22527   4.22808   4.23002   4.23328   4.24074
 Alpha virt. eigenvalues --    4.24757   4.24871   4.25212   4.25682   4.25895
 Alpha virt. eigenvalues --    4.26239   4.26901   4.27543   4.27633   4.28445
 Alpha virt. eigenvalues --    4.29120   4.29955   4.30631   4.30948   4.31323
 Alpha virt. eigenvalues --    4.31963   4.33317   4.33605   4.33874   4.34599
 Alpha virt. eigenvalues --    4.35432   4.35952   4.36313   4.36926   4.37765
 Alpha virt. eigenvalues --    4.38767   4.39418   4.39760   4.41047   4.42286
 Alpha virt. eigenvalues --    4.42815   4.43103   4.45615   4.46113   4.46542
 Alpha virt. eigenvalues --    4.47314   4.47848   4.48136   4.48686   4.49352
 Alpha virt. eigenvalues --    4.49896   4.50687   4.51326   4.51610   4.53833
 Alpha virt. eigenvalues --    4.54706   4.55754   4.55991   4.56692   4.57471
 Alpha virt. eigenvalues --    4.57746   4.58484   4.58670   4.59703   4.61405
 Alpha virt. eigenvalues --    4.62250   4.63663   4.64349   4.66162   4.66806
 Alpha virt. eigenvalues --    4.67329   4.68135   4.68698   4.68887   4.69056
 Alpha virt. eigenvalues --    4.69730   4.70285   4.70706   4.71199   4.71834
 Alpha virt. eigenvalues --    4.72095   4.72725   4.75792   4.77815   4.79349
 Alpha virt. eigenvalues --    4.79954   4.80690   4.80809   4.82839   4.84280
 Alpha virt. eigenvalues --    4.85283   4.91369   4.93041   4.96095   4.98145
 Alpha virt. eigenvalues --    4.98761   5.02002   5.04234   5.05116   5.05902
 Alpha virt. eigenvalues --    5.08528   5.08888   5.10395   5.11292   5.11750
 Alpha virt. eigenvalues --    5.13535   5.13957   5.14529   5.15325   5.17285
 Alpha virt. eigenvalues --    5.17664   5.18326   5.20943   5.23414   5.24434
 Alpha virt. eigenvalues --    5.25029   5.25231   5.26012   5.26598   5.29509
 Alpha virt. eigenvalues --    5.32355   5.35802   5.36772   5.37649   5.38526
 Alpha virt. eigenvalues --    5.41038   5.42130   5.45357   5.47870   5.49752
 Alpha virt. eigenvalues --    5.53002   5.53346   5.57409   5.61227   5.63324
 Alpha virt. eigenvalues --    5.65359   5.66524   5.67741   5.69795   5.73221
 Alpha virt. eigenvalues --    5.74573   5.75985   5.79663   5.87290   5.89041
 Alpha virt. eigenvalues --    5.90112   6.02610   6.06412   6.08392   6.14540
 Alpha virt. eigenvalues --    6.43667   6.46291   6.48984   6.49545   6.56069
 Alpha virt. eigenvalues --    6.64720   6.74128   6.81120   6.88434   6.89827
 Alpha virt. eigenvalues --    6.90316   6.93247   6.93856   6.94537   6.94587
 Alpha virt. eigenvalues --    6.94812   6.95092   6.95606   6.95949   6.96552
 Alpha virt. eigenvalues --    6.96972   7.00440   7.00679   7.04371   7.05732
 Alpha virt. eigenvalues --    7.07154   7.08557   7.13638   7.14440   7.18239
 Alpha virt. eigenvalues --    7.24070   7.28024   7.28433   7.29323   7.36318
 Alpha virt. eigenvalues --    7.38679   7.41828   7.48771   7.49437   7.52208
 Alpha virt. eigenvalues --    7.56694   7.62452   7.74012   7.76440   7.99167
 Alpha virt. eigenvalues --    8.09560   8.10008   8.10178   8.39200   8.42732
 Alpha virt. eigenvalues --    8.45250   8.49459   8.54616   8.64739   8.65058
 Alpha virt. eigenvalues --    8.78161   8.79702   8.83469   8.88203   8.90330
 Alpha virt. eigenvalues --    8.94355   8.99910   9.02394   9.09758   9.11493
 Alpha virt. eigenvalues --    9.17278   9.18678   9.41905   9.50763   9.60199
 Alpha virt. eigenvalues --    9.85664  10.92066  10.98628  11.38039  15.62129
 Alpha virt. eigenvalues --   22.15817  22.46327  22.48826  22.51440  22.54948
 Alpha virt. eigenvalues --   22.55777  22.56196  22.59038  22.59371  22.61085
 Alpha virt. eigenvalues --   22.63003  22.63620  22.64077  22.65882  22.77486
 Alpha virt. eigenvalues --   22.81511  22.83734  22.84344  22.91940  22.95816
 Alpha virt. eigenvalues --   23.04540  23.07680  23.15733  23.17797  23.23471
 Alpha virt. eigenvalues --   23.46720  23.81182  25.61679  32.75956  32.92456
 Alpha virt. eigenvalues --   43.80059  44.05974  44.36076  57.29652  57.47092
 Alpha virt. eigenvalues --   57.57152  57.68204 107.15108
          Condensed to atoms (all electrons):
 Mulliken charges:
               1
     1  Pd  -0.016340
     2  P    0.187923
     3  C    0.197198
     4  C   -0.485931
     5  H    0.166267
     6  H    0.152389
     7  H    0.131196
     8  C   -0.440549
     9  H    0.157844
    10  H    0.139343
    11  H    0.145500
    12  C   -0.522626
    13  H    0.144419
    14  H    0.184531
    15  H    0.152001
    16  C    0.135819
    17  C   -0.451915
    18  H    0.158732
    19  H    0.141789
    20  H    0.164273
    21  C   -0.440673
    22  H    0.144302
    23  H    0.134631
    24  H    0.155947
    25  C   -0.483302
    26  H    0.147085
    27  H    0.142216
    28  H    0.151691
    29  C    0.170163
    30  C   -0.432791
    31  H    0.158167
    32  H    0.138170
    33  H    0.146464
    34  C   -0.475437
    35  H    0.165162
    36  H    0.187031
    37  H    0.183903
    38  C   -0.501047
    39  H    0.151845
    40  H    0.147439
    41  H    0.179095
    42  C   -0.087408
    43  C   -0.265838
    44  H    0.194749
    45  C   -0.370041
    46  H    0.165391
    47  C    0.395991
    48  C   -0.384352
    49  H    0.143267
    50  C    0.152978
    51  C    0.034889
    52  C    0.281629
    53  C    0.137514
    54  C    0.208054
    55  C    0.186556
    56  C   -0.009523
    57  N   -0.400744
    58  S    0.836536
    59  O   -0.517476
    60  O   -0.514401
    61  C   -0.183798
    62  Cl  -0.105959
    63  H    0.200295
    64  H    0.207224
    65  F   -0.205798
    66  F   -0.197908
    67  F   -0.201561
    68  F   -0.212809
    69  O   -0.301371
    70  C   -0.229452
    71  H    0.158111
    72  H    0.136906
    73  H    0.136426
 Sum of Mulliken charges =   0.00000
 Mulliken charges with hydrogens summed into heavy atoms:
               1
     1  Pd  -0.016340
     2  P    0.187923
     3  C    0.197198
     4  C   -0.036079
     8  C    0.002138
    12  C   -0.041675
    16  C    0.135819
    17  C    0.012879
    21  C   -0.005793
    25  C   -0.042309
    29  C    0.170163
    30  C    0.010010
    34  C    0.060659
    38  C   -0.022667
    42  C   -0.087408
    43  C   -0.071088
    45  C   -0.204651
    47  C    0.395991
    48  C   -0.241085
    50  C    0.152978
    51  C    0.034889
    52  C    0.281629
    53  C    0.137514
    54  C    0.208054
    55  C    0.186556
    56  C   -0.009523
    57  N   -0.400744
    58  S    0.836536
    59  O   -0.517476
    60  O   -0.514401
    61  C    0.223722
    62  Cl  -0.105959
    65  F   -0.205798
    66  F   -0.197908
    67  F   -0.201561
    68  F   -0.212809
    69  O   -0.301371
    70  C    0.201990
 Electronic spatial extent (au):  <R**2>=          19721.9509
 Charge=              0.0000 electrons
 Dipole moment (field-independent basis, Debye):
    X=            -13.8285    Y=              5.9264    Z=             -3.9122  Tot=             15.5452
 Quadrupole moment (field-independent basis, Debye-Ang):
   XX=           -256.8304   YY=           -252.6074   ZZ=           -267.2277
   XY=             14.3420   XZ=             11.1916   YZ=             22.3327
 Traceless Quadrupole moment (field-independent basis, Debye-Ang):
   XX=              2.0581   YY=              6.2811   ZZ=             -8.3392
   XY=             14.3420   XZ=             11.1916   YZ=             22.3327
 Octapole moment (field-independent basis, Debye-Ang**2):
  XXX=           -155.5855  YYY=            116.7246  ZZZ=             -9.2160  XYY=            -49.6213
  XXY=             13.5190  XXZ=             20.8881  XZZ=            -24.9346  YZZ=             17.8478
  YYZ=            -12.5859  XYZ=             22.2908
 Hexadecapole moment (field-independent basis, Debye-Ang**3):
 XXXX=         -12432.8017 YYYY=          -6461.8850 ZZZZ=          -5393.8250 XXXY=            101.2635
 XXXZ=            -33.8660 YYYX=            146.8256 YYYZ=            294.6446 ZZZX=              0.5873
 ZZZY=             67.2992 XXYY=          -3433.3186 XXZZ=          -3068.1510 YYZZ=          -2240.8173
 XXYZ=             39.8632 YYXZ=            -19.0912 ZZXY=             15.0182
 N-N= 6.161203802286D+03 E-N=-1.940712776677D+04  KE= 2.929218586732D+03
 No NMR shielding tensors so no spin-rotation constants.
 Leave Link  601 at Tue Nov 28 20:35:18 2023, MaxMem=  2147483648 cpu:        13.4
 (Enter /cluster/apps/gaussian/g09/l9999.exe)
 1\1\GINC-EU-G1-001-1\SP\RwB97XD\GenECP\C26H35Cl1F4N1O3P1Pd1S1\SROEDIGE
 R\28-Nov-2023\0\\#p sp geom=allcheck scrf(solvent=dichloromethane,smd)
  wb97xd genecp temperature=313 integral(grid=ultrafine)\\title\\0,1\Pd
 ,0,-0.8257463079,-0.2927968815,0.2547374227\P,0,-2.3791786293,0.225368
 4959,-1.3614064203\C,0,-3.9338127326,1.1128761277,-0.6978797115\C,0,-3
 .4987629352,2.4191433266,-0.0210709926\H,0,-3.0026351243,3.1250231544,
 -0.6957157994\H,0,-4.3966687885,2.919243478,0.3770465908\H,0,-2.832809
 9738,2.2103313132,0.82815091\C,0,-4.9901410682,1.4090986825,-1.7639278
 128\H,0,-5.3278176685,0.5072521554,-2.2905340639\H,0,-4.6390138023,2.1
 319765903,-2.512151787\H,0,-5.8720853458,1.8544272182,-1.2744164242\C,
 0,-4.5586680927,0.2728957514,0.4226040293\H,0,-5.0277237551,-0.6523903
 699,0.0671231544\H,0,-3.8239433015,0.0280226361,1.2051970112\H,0,-5.35
 09247934,0.8742109349,0.8969558746\C,0,-1.7945253329,1.0289764374,-2.9
 847792652\C,0,-0.3331456912,0.6186516298,-3.2162532832\H,0,-0.20448646
 44,-0.4554035332,-3.3848026279\H,0,0.035219778,1.1409462922,-4.1142166
 915\H,0,0.301579901,0.9078983417,-2.3669201108\C,0,-2.6468314078,0.642
 6201671,-4.1961696088\H,0,-2.2604697731,1.1737515416,-5.0816245925\H,0
 ,-2.6005623063,-0.4305885677,-4.4206317464\H,0,-3.7015778038,0.9236844
 285,-4.0792908538\C,0,-1.7957703394,2.5555933396,-2.8464934127\H,0,-1.
 3372690075,2.9776897874,-3.755297813\H,0,-2.8036702521,2.9824433343,-2
 .7654466136\H,0,-1.1896433739,2.8885818116,-1.9930721182\C,0,-2.800955
 6661,-1.6222349988,-1.6550952905\C,0,-4.1525760129,-1.9111785678,-2.30
 51181127\H,0,-4.2418738597,-1.4551590474,-3.3001750487\H,0,-4.99915732
 21,-1.5720815562,-1.694864436\H,0,-4.2608610294,-3.0013679077,-2.43118
 24749\C,0,-2.7282255371,-2.2912928728,-0.2678231659\H,0,-2.8824098494,
 -3.3768242873,-0.384897598\H,0,-3.463232523,-1.9321637776,0.4564414718
 \H,0,-1.720557321,-2.2278533079,0.2041988619\C,0,-1.6954004517,-2.2795
 209245,-2.4901303662\H,0,-1.8652875987,-3.3684166606,-2.486479248\H,0,
 -1.6931510414,-1.9554029636,-3.538098572\H,0,-0.6982343099,-2.10068981
 ,-2.0601499518\C,0,0.4879194383,1.1811678534,0.2057676069\C,0,0.066118
 0964,2.5059692584,0.2658169432\H,0,-0.9966603595,2.7314557634,0.292856
 2597\C,0,0.9621558915,3.5762304252,0.3114473628\H,0,0.5738622501,4.594
 1155833,0.3560369807\C,0,2.3323093164,3.3140119619,0.3111439657\C,0,2.
 7705474375,1.9884875271,0.2776855638\H,0,3.8458472157,1.8180586165,0.3
 098477323\C,0,1.8785962883,0.9097325874,0.2285275808\C,0,2.4321004609,
 -0.4622594983,0.2703679676\C,0,3.6380522914,-0.8047607893,-0.349125298
 3\C,0,4.1866609985,-2.0789382643,-0.2356332056\C,0,3.5150167376,-3.054
 6534052,0.4940915041\C,0,2.2884242518,-2.7557998712,1.0776056382\C,0,1
 .7457749086,-1.4684436463,0.990359207\N,0,0.4694874156,-1.2197650436,1
 .4752308914\S,0,0.0730564068,-1.3347008272,3.0460637364\O,0,-1.2974454
 385,-1.827730173,3.1287166885\O,0,1.1541412488,-1.9453556737,3.8121809
 097\C,0,0.0377933778,0.3729589546,3.675296017\Cl,0,-1.4065942832,1.282
 0463908,3.2241121161\H,0,0.9336384325,0.8878612759,3.3039221374\H,0,0.
 0666861764,0.2717213673,4.7679590504\F,0,1.6175207213,-3.7300993911,1.
 667249513\F,0,4.0165256351,-4.2751100328,0.577835409\F,0,5.3339689964,
 -2.3681756188,-0.8310978227\F,0,4.3114193966,0.0731067473,-1.089451671
 2\O,0,3.2963000948,4.2576121358,0.3569125387\C,0,2.9138648063,5.601227
 4141,0.4163075248\H,0,3.8380815231,6.1920687408,0.4494102917\H,0,2.318
 4249015,5.821135434,1.3206409439\H,0,2.3304456556,5.9035624003,-0.4719
 94767\\Version=ES64L-G09RevD.01\State=1-A\HF=-3019.5324541\RMSD=1.567e
 -09\Dipole=-3.832868,3.2178065,-3.5156543\Quadrupole=0.3648151,4.93435
 03,-5.2991654,8.8770683,13.3310157,14.3914617\PG=C01 [X(C26H35Cl1F4N1O
 3P1Pd1S1)]\\@


 I DO NOT DEFINE TIME, SPACE, PLACE, AND MOTION, AS BEING WELL KNOWN TO ALL.
                                            -- NEWTON (1642-1726), PRINCIPIA
 Job cpu time:       0 days 21 hours  0 minutes  2.3 seconds.
 File lengths (MBytes):  RWF=   1431 Int=      0 D2E=      0 Chk=     88 Scr=      1
 Normal termination of Gaussian 09 at Tue Nov 28 20:35:18 2023.
