 Entering Gaussian System, Link 0=g09
 Input=pmes3_step6-sp.com
 Output=pmes3_step6-sp.log
 Initial command:
 /cluster/apps/gaussian/g09/l1.exe "/scratch/264093210.tmpdir/Gau-68091.inp" -scrdir="/scratch/264093210.tmpdir/"
 Entering Link 1 = /cluster/apps/gaussian/g09/l1.exe PID=     68092.
  
 Copyright (c) 1988,1990,1992,1993,1995,1998,2003,2009,2013,
            Gaussian, Inc.  All Rights Reserved.
  
 This is part of the Gaussian(R) 09 program.  It is based on
 the Gaussian(R) 03 system (copyright 2003, Gaussian, Inc.),
 the Gaussian(R) 98 system (copyright 1998, Gaussian, Inc.),
 the Gaussian(R) 94 system (copyright 1995, Gaussian, Inc.),
 the Gaussian 92(TM) system (copyright 1992, Gaussian, Inc.),
 the Gaussian 90(TM) system (copyright 1990, Gaussian, Inc.),
 the Gaussian 88(TM) system (copyright 1988, Gaussian, Inc.),
 the Gaussian 86(TM) system (copyright 1986, Carnegie Mellon
 University), and the Gaussian 82(TM) system (copyright 1983,
 Carnegie Mellon University). Gaussian is a federally registered
 trademark of Gaussian, Inc.
  
 This software contains proprietary and confidential information,
 including trade secrets, belonging to Gaussian, Inc.
  
 This software is provided under written license and may be
 used, copied, transmitted, or stored only in accord with that
 written license.
  
 The following legend is applicable only to US Government
 contracts under FAR:
  
                    RESTRICTED RIGHTS LEGEND
  
 Use, reproduction and disclosure by the US Government is
 subject to restrictions as set forth in subparagraphs (a)
 and (c) of the Commercial Computer Software - Restricted
 Rights clause in FAR 52.227-19.
  
 Gaussian, Inc.
 340 Quinnipiac St., Bldg. 40, Wallingford CT 06492
  
  
 ---------------------------------------------------------------
 Warning -- This program may not be used in any manner that
 competes with the business of Gaussian, Inc. or will provide
 assistance to any competitor of Gaussian, Inc.  The licensee
 of this program is prohibited from giving any competitor of
 Gaussian, Inc. access to this program.  By using this program,
 the user acknowledges that Gaussian, Inc. is engaged in the
 business of creating and licensing software in the field of
 computational chemistry and represents and warrants to the
 licensee that it is not a competitor of Gaussian, Inc. and that
 it will not use this program in any manner prohibited above.
 ---------------------------------------------------------------
  

 Cite this work as:
 Gaussian 09, Revision D.01,
 M. J. Frisch, G. W. Trucks, H. B. Schlegel, G. E. Scuseria, 
 M. A. Robb, J. R. Cheeseman, G. Scalmani, V. Barone, B. Mennucci, 
 G. A. Petersson, H. Nakatsuji, M. Caricato, X. Li, H. P. Hratchian, 
 A. F. Izmaylov, J. Bloino, G. Zheng, J. L. Sonnenberg, M. Hada, 
 M. Ehara, K. Toyota, R. Fukuda, J. Hasegawa, M. Ishida, T. Nakajima, 
 Y. Honda, O. Kitao, H. Nakai, T. Vreven, J. A. Montgomery, Jr., 
 J. E. Peralta, F. Ogliaro, M. Bearpark, J. J. Heyd, E. Brothers, 
 K. N. Kudin, V. N. Staroverov, T. Keith, R. Kobayashi, J. Normand, 
 K. Raghavachari, A. Rendell, J. C. Burant, S. S. Iyengar, J. Tomasi, 
 M. Cossi, N. Rega, J. M. Millam, M. Klene, J. E. Knox, J. B. Cross, 
 V. Bakken, C. Adamo, J. Jaramillo, R. Gomperts, R. E. Stratmann, 
 O. Yazyev, A. J. Austin, R. Cammi, C. Pomelli, J. W. Ochterski, 
 R. L. Martin, K. Morokuma, V. G. Zakrzewski, G. A. Voth, 
 P. Salvador, J. J. Dannenberg, S. Dapprich, A. D. Daniels, 
 O. Farkas, J. B. Foresman, J. V. Ortiz, J. Cioslowski, 
 and D. J. Fox, Gaussian, Inc., Wallingford CT, 2013.
 
 ******************************************
 Gaussian 09:  ES64L-G09RevD.01 24-Apr-2013
                28-Nov-2023 
 ******************************************
 %nprocshared=8
 Will use up to    8 processors via shared memory.
 %mem=16GB
 %oldchk=pmes3_step6.chk
 %chk=pmes3_step6-sp.chk
 Copying data from "pmes3_step6.chk" to current chk file "pmes3_step6-sp.chk".
 ----------------------------------------------------------------------
 #p sp geom=allcheck scrf(solvent=dichloromethane,smd) wb97xd genecp te
 mperature=313 integral(grid=ultrafine)
 ----------------------------------------------------------------------
 1/29=7,38=1,112=313000/1;
 2/12=2,40=1/2;
 3/5=7,11=2,14=-4,16=1,17=8,25=1,30=1,70=32201,72=9,74=-58,75=-5/1,2,3;
 4//1;
 5/5=2,38=5,53=9/2;
 6/7=2,8=2,9=2,10=2,28=1/1;
 99/5=1,9=1/99;
 Leave Link    1 at Tue Nov 28 17:31:40 2023, MaxMem=  2147483648 cpu:         1.7
 (Enter /cluster/apps/gaussian/g09/l101.exe)
 Structure from the checkpoint file:  "pmes3_step6-sp.chk"
 -----
 title
 -----
 Charge =  0 Multiplicity = 1
 Redundant internal coordinates found in file.
 Pd,0,0.3362950544,-0.5875404879,-0.2321381432
 P,0,2.440040821,-0.0082907801,0.6139216361
 C,0,-0.5721687999,1.1674471449,-0.4324444074
 C,0,0.0409802103,2.2197857527,-1.1161500818
 H,0,1.0559877031,2.1117309423,-1.4916887577
 C,0,-0.5982442103,3.4327032599,-1.3285135827
 H,0,-0.1016964794,4.2480212356,-1.8580828309
 C,0,-1.9036167691,3.6216484929,-0.8644690113
 C,0,-2.5413547387,2.5784230256,-0.1964723174
 H,0,-3.5622814309,2.6993047622,0.1590157352
 C,0,-1.8899888325,1.3496253581,0.0297909059
 C,0,-2.6348921633,0.2811202894,0.7287310582
 C,0,-3.5162111489,0.5362132744,1.7820206303
 C,0,-4.2502824804,-0.4807815338,2.3860375913
 C,0,-4.0952450551,-1.7933457361,1.9511976642
 C,0,-3.1908108771,-2.0805026299,0.9330659509
 C,0,-2.4643184949,-1.0589308592,0.3131256083
 N,0,-1.4838741882,-1.3746031042,-0.6244529774
 S,0,-1.8962676422,-1.9160232803,-2.0997670914
 O,0,-0.8071491998,-2.7497303103,-2.6006414867
 O,0,-3.2747219299,-2.3967880387,-2.0913572788
 C,0,-1.980819234,-0.4698584537,-3.199486349
 Cl,0,-0.410537419,0.0977022984,-3.7584893844
 H,0,-2.5003532228,0.3337554935,-2.6605124528
 H,0,-2.5705919418,-0.8098890532,-4.0607623751
 F,0,-2.9943943016,-3.3443612894,0.603447255
 F,0,-4.7716760784,-2.7650703317,2.5408831178
 F,0,-5.0785481503,-0.2060169226,3.3830994293
 F,0,-3.6782889057,1.7679984616,2.2676034291
 O,0,-2.4678621235,4.8243652058,-1.1079068131
 C,0,-3.7705670597,5.0565847349,-0.653248364
 H,0,-4.4992782646,4.3697475035,-1.1198674435
 H,0,-4.0250008353,6.0861081984,-0.9359687536
 H,0,-3.8479357258,4.9573038759,0.4441961955
 C,0,3.5605977341,-1.3449429113,0.0018643859
 C,0,2.9572493507,-2.5403214481,-0.4441615506
 C,0,4.9651453414,-1.2062849448,-0.0911974347
 C,0,3.7398600765,-3.5489587854,-1.005849061
 C,0,5.7039575225,-2.2375984301,-0.6773669452
 C,0,5.1189945439,-3.4106087327,-1.154371451
 H,0,3.2502523317,-4.467861306,-1.3399838274
 H,0,6.7896016461,-2.1221423027,-0.744585987
 C,0,2.2469631383,-0.1214321443,2.4530525922
 C,0,1.3269119193,0.781850428,3.045707145
 C,0,2.832486281,-1.131072018,3.2641551309
 C,0,1.0060152123,0.6562798245,4.3978606515
 C,0,2.4595724975,-1.2086095946,4.6107943972
 C,0,1.545481073,-0.3413412824,5.2032298761
 H,0,0.3005203662,1.3727217364,4.8291357896
 H,0,2.9183191112,-1.9890859156,5.2239221853
 C,0,3.2502689851,1.5325441883,0.0331092139
 C,0,3.7762715312,2.5573246152,0.8557621535
 C,0,3.3257674926,1.6653110728,-1.3797538087
 C,0,4.2749189861,3.7136878297,0.2485380961
 C,0,3.8428813987,2.842794686,-1.9248446711
 C,0,4.3009745398,3.8936337672,-1.1329136841
 H,0,4.6788647108,4.5000338696,0.8927323591
 H,0,3.8862316085,2.9335250553,-3.0138703038
 C,0,0.6530892323,1.9082579719,2.318534621
 H,0,1.1192193565,2.1825715973,1.3666255733
 H,0,-0.389893674,1.6480894571,2.0901296896
 H,0,0.6299882133,2.8050260352,2.9554043181
 C,0,1.4826744734,-2.7811405647,-0.3478740995
 H,0,1.038044742,-2.3629851555,0.5873306263
 H,0,0.9431754392,-2.4482532097,-1.2610025537
 H,0,1.2326543879,-3.849330341,-0.2917277126
 C,0,2.917518028,0.5858836911,-2.3422735801
 H,0,3.6711089848,-0.215324981,-2.38530329
 H,0,1.9636483114,0.1053659918,-2.0678723242
 H,0,2.8020092578,0.9991523867,-3.352886341
 C,0,3.8541673808,-2.1458580213,2.8257511208
 H,0,3.4648366163,-2.8518094238,2.080304201
 H,0,4.745937653,-1.6839240706,2.3857675285
 H,0,4.1796129474,-2.730054306,3.6964135376
 C,0,1.1455290537,-0.4882903351,6.6400913402
 H,0,0.2272528673,-1.092839975,6.7261096872
 H,0,1.9261413592,-0.9911631294,7.228434019
 H,0,0.9362176504,0.4873183686,7.1022437275
 C,0,5.741464361,-0.0361055552,0.4427553732
 H,0,5.751326727,0.8091958974,-0.2616034319
 H,0,5.3295933392,0.341485943,1.3869904474
 H,0,6.7836577427,-0.3331753239,0.6248302161
 C,0,5.9396171426,-4.480012658,-1.8096512205
 H,0,5.5386863786,-5.4818444849,-1.5986424292
 H,0,5.9364346988,-4.3526864256,-2.9050010415
 H,0,6.9869787476,-4.4473953347,-1.4777884038
 C,0,3.9113435801,2.4844561316,2.351890581
 H,0,2.9891796266,2.7863905365,2.868252608
 H,0,4.153640028,1.4783808699,2.7143206412
 H,0,4.7066143829,3.1671082531,2.6809271145
 C,0,4.7983281185,5.1692994985,-1.7430565753
 H,0,3.9687930552,5.8841077443,-1.874217359
 H,0,5.5508736427,5.6559928127,-1.1061945216
 H,0,5.2409632031,4.9976615725,-2.7346912139
 Recover connectivity data from disk.
 NAtoms=     94 NQM=       94 NQMF=       0 NMMI=      0 NMMIF=      0
                NMic=       0 NMicF=      0.
                    Isotopes and Nuclear Properties:
 (Nuclear quadrupole moments (NQMom) in fm**2, nuclear magnetic moments (NMagM)
  in nuclear magnetons)

  Atom         1           2           3           4           5           6           7           8           9          10
 IAtWgt=         106          31          12          12           1          12           1          12          12           1
 AtmWgt= 105.9032000  30.9737634  12.0000000  12.0000000   1.0078250  12.0000000   1.0078250  12.0000000  12.0000000   1.0078250
 NucSpn=           0           1           0           0           1           0           1           0           0           1
 AtZEff=-237.3600000 -12.9400000  -3.6000000  -3.6000000  -1.0000000  -3.6000000  -1.0000000  -3.6000000  -3.6000000  -1.0000000
 NQMom=    0.0000000   0.0000000   0.0000000   0.0000000   0.0000000   0.0000000   0.0000000   0.0000000   0.0000000   0.0000000
 NMagM=    0.0000000   1.1316000   0.0000000   0.0000000   2.7928460   0.0000000   2.7928460   0.0000000   0.0000000   2.7928460
 AtZNuc=  46.0000000  15.0000000   6.0000000   6.0000000   1.0000000   6.0000000   1.0000000   6.0000000   6.0000000   1.0000000

  Atom        11          12          13          14          15          16          17          18          19          20
 IAtWgt=          12          12          12          12          12          12          12          14          32          16
 AtmWgt=  12.0000000  12.0000000  12.0000000  12.0000000  12.0000000  12.0000000  12.0000000  14.0030740  31.9720718  15.9949146
 NucSpn=           0           0           0           0           0           0           0           2           0           0
 AtZEff=  -3.6000000  -3.6000000  -3.6000000  -3.6000000  -3.6000000  -3.6000000  -3.6000000  -4.5500000 -13.6000000  -5.6000000
 NQMom=    0.0000000   0.0000000   0.0000000   0.0000000   0.0000000   0.0000000   0.0000000   2.0440000   0.0000000   0.0000000
 NMagM=    0.0000000   0.0000000   0.0000000   0.0000000   0.0000000   0.0000000   0.0000000   0.4037610   0.0000000   0.0000000
 AtZNuc=   6.0000000   6.0000000   6.0000000   6.0000000   6.0000000   6.0000000   6.0000000   7.0000000  16.0000000   8.0000000

  Atom        21          22          23          24          25          26          27          28          29          30
 IAtWgt=          16          12          35           1           1          19          19          19          19          16
 AtmWgt=  15.9949146  12.0000000  34.9688527   1.0078250   1.0078250  18.9984033  18.9984033  18.9984033  18.9984033  15.9949146
 NucSpn=           0           0           3           1           1           1           1           1           1           0
 AtZEff=  -5.6000000  -3.6000000 -14.2400000  -1.0000000  -1.0000000  -6.7500000  -6.7500000  -6.7500000  -6.7500000  -5.6000000
 NQMom=    0.0000000   0.0000000  -8.1650000   0.0000000   0.0000000   0.0000000   0.0000000   0.0000000   0.0000000   0.0000000
 NMagM=    0.0000000   0.0000000   0.8218740   2.7928460   2.7928460   2.6288670   2.6288670   2.6288670   2.6288670   0.0000000
 AtZNuc=   8.0000000   6.0000000  17.0000000   1.0000000   1.0000000   9.0000000   9.0000000   9.0000000   9.0000000   8.0000000

  Atom        31          32          33          34          35          36          37          38          39          40
 IAtWgt=          12           1           1           1          12          12          12          12          12          12
 AtmWgt=  12.0000000   1.0078250   1.0078250   1.0078250  12.0000000  12.0000000  12.0000000  12.0000000  12.0000000  12.0000000
 NucSpn=           0           1           1           1           0           0           0           0           0           0
 AtZEff=  -3.6000000  -1.0000000  -1.0000000  -1.0000000  -3.6000000  -3.6000000  -3.6000000  -3.6000000  -3.6000000  -3.6000000
 NQMom=    0.0000000   0.0000000   0.0000000   0.0000000   0.0000000   0.0000000   0.0000000   0.0000000   0.0000000   0.0000000
 NMagM=    0.0000000   2.7928460   2.7928460   2.7928460   0.0000000   0.0000000   0.0000000   0.0000000   0.0000000   0.0000000
 AtZNuc=   6.0000000   1.0000000   1.0000000   1.0000000   6.0000000   6.0000000   6.0000000   6.0000000   6.0000000   6.0000000

  Atom        41          42          43          44          45          46          47          48          49          50
 IAtWgt=           1           1          12          12          12          12          12          12           1           1
 AtmWgt=   1.0078250   1.0078250  12.0000000  12.0000000  12.0000000  12.0000000  12.0000000  12.0000000   1.0078250   1.0078250
 NucSpn=           1           1           0           0           0           0           0           0           1           1
 AtZEff=  -1.0000000  -1.0000000  -3.6000000  -3.6000000  -3.6000000  -3.6000000  -3.6000000  -3.6000000  -1.0000000  -1.0000000
 NQMom=    0.0000000   0.0000000   0.0000000   0.0000000   0.0000000   0.0000000   0.0000000   0.0000000   0.0000000   0.0000000
 NMagM=    2.7928460   2.7928460   0.0000000   0.0000000   0.0000000   0.0000000   0.0000000   0.0000000   2.7928460   2.7928460
 AtZNuc=   1.0000000   1.0000000   6.0000000   6.0000000   6.0000000   6.0000000   6.0000000   6.0000000   1.0000000   1.0000000

  Atom        51          52          53          54          55          56          57          58          59          60
 IAtWgt=          12          12          12          12          12          12           1           1          12           1
 AtmWgt=  12.0000000  12.0000000  12.0000000  12.0000000  12.0000000  12.0000000   1.0078250   1.0078250  12.0000000   1.0078250
 NucSpn=           0           0           0           0           0           0           1           1           0           1
 AtZEff=  -3.6000000  -3.6000000  -3.6000000  -3.6000000  -3.6000000  -3.6000000  -1.0000000  -1.0000000  -3.6000000  -1.0000000
 NQMom=    0.0000000   0.0000000   0.0000000   0.0000000   0.0000000   0.0000000   0.0000000   0.0000000   0.0000000   0.0000000
 NMagM=    0.0000000   0.0000000   0.0000000   0.0000000   0.0000000   0.0000000   2.7928460   2.7928460   0.0000000   2.7928460
 AtZNuc=   6.0000000   6.0000000   6.0000000   6.0000000   6.0000000   6.0000000   1.0000000   1.0000000   6.0000000   1.0000000

  Atom        61          62          63          64          65          66          67          68          69          70
 IAtWgt=           1           1          12           1           1           1          12           1           1           1
 AtmWgt=   1.0078250   1.0078250  12.0000000   1.0078250   1.0078250   1.0078250  12.0000000   1.0078250   1.0078250   1.0078250
 NucSpn=           1           1           0           1           1           1           0           1           1           1
 AtZEff=  -1.0000000  -1.0000000  -3.6000000  -1.0000000  -1.0000000  -1.0000000  -3.6000000  -1.0000000  -1.0000000  -1.0000000
 NQMom=    0.0000000   0.0000000   0.0000000   0.0000000   0.0000000   0.0000000   0.0000000   0.0000000   0.0000000   0.0000000
 NMagM=    2.7928460   2.7928460   0.0000000   2.7928460   2.7928460   2.7928460   0.0000000   2.7928460   2.7928460   2.7928460
 AtZNuc=   1.0000000   1.0000000   6.0000000   1.0000000   1.0000000   1.0000000   6.0000000   1.0000000   1.0000000   1.0000000

  Atom        71          72          73          74          75          76          77          78          79          80
 IAtWgt=          12           1           1           1          12           1           1           1          12           1
 AtmWgt=  12.0000000   1.0078250   1.0078250   1.0078250  12.0000000   1.0078250   1.0078250   1.0078250  12.0000000   1.0078250
 NucSpn=           0           1           1           1           0           1           1           1           0           1
 AtZEff=  -3.6000000  -1.0000000  -1.0000000  -1.0000000  -3.6000000  -1.0000000  -1.0000000  -1.0000000  -3.6000000  -1.0000000
 NQMom=    0.0000000   0.0000000   0.0000000   0.0000000   0.0000000   0.0000000   0.0000000   0.0000000   0.0000000   0.0000000
 NMagM=    0.0000000   2.7928460   2.7928460   2.7928460   0.0000000   2.7928460   2.7928460   2.7928460   0.0000000   2.7928460
 AtZNuc=   6.0000000   1.0000000   1.0000000   1.0000000   6.0000000   1.0000000   1.0000000   1.0000000   6.0000000   1.0000000

  Atom        81          82          83          84          85          86          87          88          89          90
 IAtWgt=           1           1          12           1           1           1          12           1           1           1
 AtmWgt=   1.0078250   1.0078250  12.0000000   1.0078250   1.0078250   1.0078250  12.0000000   1.0078250   1.0078250   1.0078250
 NucSpn=           1           1           0           1           1           1           0           1           1           1
 AtZEff=  -1.0000000  -1.0000000  -3.6000000  -1.0000000  -1.0000000  -1.0000000  -3.6000000  -1.0000000  -1.0000000  -1.0000000
 NQMom=    0.0000000   0.0000000   0.0000000   0.0000000   0.0000000   0.0000000   0.0000000   0.0000000   0.0000000   0.0000000
 NMagM=    2.7928460   2.7928460   0.0000000   2.7928460   2.7928460   2.7928460   0.0000000   2.7928460   2.7928460   2.7928460
 AtZNuc=   1.0000000   1.0000000   6.0000000   1.0000000   1.0000000   1.0000000   6.0000000   1.0000000   1.0000000   1.0000000

  Atom        91          92          93          94
 IAtWgt=          12           1           1           1
 AtmWgt=  12.0000000   1.0078250   1.0078250   1.0078250
 NucSpn=           0           1           1           1
 AtZEff=  -3.6000000  -1.0000000  -1.0000000  -1.0000000
 NQMom=    0.0000000   0.0000000   0.0000000   0.0000000
 NMagM=    0.0000000   2.7928460   2.7928460   2.7928460
 AtZNuc=   6.0000000   1.0000000   1.0000000   1.0000000
 Leave Link  101 at Tue Nov 28 17:31:40 2023, MaxMem=  2147483648 cpu:         2.7
 (Enter /cluster/apps/gaussian/g09/l202.exe)
 Stoichiometry    C41H41ClF4NO3PPdS
 Framework group  C1[X(C41H41ClF4NO3PPdS)]
 Deg. of freedom   276
 Full point group                 C1      NOp   1
 RotChk:  IX=0 Diff= 1.29D-14
 Largest Abelian subgroup         C1      NOp   1
 Largest concise Abelian subgroup C1      NOp   1
                         Standard orientation:                         
 ---------------------------------------------------------------------
 Center     Atomic      Atomic             Coordinates (Angstroms)
 Number     Number       Type             X           Y           Z
 ---------------------------------------------------------------------
      1         46           0       -0.157419   -0.400910   -0.648941
      2         15           0        1.869517   -0.182968    0.500460
      3          6           0       -1.074113    1.323235   -0.285061
      4          6           0       -0.427602    2.541295   -0.506813
      5          1           0        0.613810    2.559909   -0.819961
      6          6           0       -1.067028    3.759082   -0.325140
      7          1           0       -0.544704    4.702478   -0.495218
      8          6           0       -2.405690    3.788580    0.077538
      9          6           0       -3.075695    2.584887    0.286020
     10          1           0       -4.121716    2.585413    0.584540
     11          6           0       -2.424955    1.347193    0.112622
     12          6           0       -3.203736    0.110268    0.333122
     13          6           0       -4.163976   -0.011176    1.340299
     14          6           0       -4.925703   -1.166589    1.491184
     15          6           0       -4.719899   -2.243617    0.634679
     16          6           0       -3.738735   -2.164851   -0.349276
     17          6           0       -2.983457   -0.999451   -0.513967
     18          7           0       -1.932025   -0.976691   -1.427174
     19         16           0       -2.226531   -0.958490   -3.024888
     20          8           0       -1.091397   -1.575707   -3.705062
     21          8           0       -3.594696   -1.394283   -3.288611
     22          6           0       -2.250796    0.783317   -3.547804
     23         17           0       -0.651996    1.491934   -3.752972
     24          1           0       -2.820330    1.351896   -2.800439
     25          1           0       -2.770410    0.775849   -4.514858
     26          9           0       -3.500140   -3.233883   -1.087388
     27          9           0       -5.423752   -3.352331    0.792413
     28          9           0       -5.829179   -1.250472    2.456765
     29          9           0       -4.379367    0.972470    2.215172
     30          8           0       -2.967909    5.006840    0.232187
     31          6           0       -4.303849    5.080108    0.641547
     32          1           0       -4.986066    4.610779   -0.089759
     33          1           0       -4.551712    6.146295    0.721523
     34          1           0       -4.460507    4.601527    1.624729
     35          6           0        3.051532   -1.232062   -0.458260
     36          6           0        2.500215   -2.186094   -1.340173
     37          6           0        4.456947   -1.086915   -0.392077
     38          6           0        3.336745   -2.941791   -2.161430
     39          6           0        5.251939   -1.854664   -1.247410
     40          6           0        4.720915   -2.777078   -2.148984
     41          1           0        2.886563   -3.677924   -2.833136
     42          1           0        6.337785   -1.736383   -1.188940
     43          6           0        1.542968   -0.934385    2.162152
     44          6           0        0.568638   -0.286488    2.965000
     45          6           0        2.081715   -2.172215    2.606703
     46          6           0        0.150736   -0.876389    4.158497
     47          6           0        1.611649   -2.714580    3.808115
     48          6           0        0.643804   -2.100382    4.598516
     49          1           0       -0.595018   -0.349141    4.760886
     50          1           0        2.035243   -3.666641    4.139273
     51          6           0        2.697840    1.453539    0.561378
     52          6           0        3.146733    2.116196    1.728851
     53          6           0        2.875413    2.074602   -0.704425
     54          6           0        3.671909    3.406077    1.606601
     55          6           0        3.414112    3.362129   -0.759897
     56          6           0        3.797174    4.060836    0.383054
     57          1           0        4.015731    3.909989    2.514542
     58          1           0        3.536351    3.830164   -1.740759
     59          6           0       -0.066052    1.032139    2.633333
     60          1           0        0.464980    1.618429    1.876415
     61          1           0       -1.085442    0.882057    2.251247
     62          1           0       -0.149137    1.647254    3.541661
     63          6           0        1.026222   -2.427114   -1.444523
     64          1           0        0.507769   -2.359770   -0.457696
     65          1           0        0.550758   -1.787218   -2.219213
     66          1           0        0.788336   -3.443415   -1.786919
     67          6           0        2.555053    1.408623   -2.012904
     68          1           0        3.321362    0.664675   -2.279359
     69          1           0        1.590645    0.874094   -1.996886
     70          1           0        2.508398    2.152833   -2.818786
     71          6           0        3.147633   -2.980059    1.916031
     72          1           0        2.824683   -3.373247    0.943024
     73          1           0        4.062603   -2.403816    1.734378
     74          1           0        3.416445   -3.837519    2.546709
     75          6           0        0.141133   -2.739153    5.857650
     76          1           0       -0.772078   -3.323825    5.656865
     77          1           0        0.883464   -3.426686    6.287333
     78          1           0       -0.115897   -1.986399    6.616930
     79          6           0        5.174626   -0.189583    0.575823
     80          1           0        5.224100    0.849479    0.217136
     81          1           0        4.688765   -0.163786    1.559218
     82          1           0        6.204768   -0.544635    0.718356
     83          6           0        5.603138   -3.557137   -3.076144
     84          1           0        5.202377   -4.564029   -3.261877
     85          1           0        5.678909   -3.052052   -4.053467
     86          1           0        6.622578   -3.656501   -2.677357
     87          6           0        3.172120    1.519244    3.109053
     88          1           0        2.210076    1.631301    3.628759
     89          1           0        3.401658    0.447068    3.110803
     90          1           0        3.930918    2.032303    3.715460
     91          6           0        4.319537    5.463405    0.300006
     92          1           0        3.491608    6.188807    0.367881
     93          1           0        5.015879    5.685167    1.121417
     94          1           0        4.836570    5.646658   -0.652790
 ---------------------------------------------------------------------
 Rotational constants (GHZ):      0.0593244      0.0417658      0.0402461
 Leave Link  202 at Tue Nov 28 17:31:40 2023, MaxMem=  2147483648 cpu:         0.4
 (Enter /cluster/apps/gaussian/g09/l301.exe)
 General basis read from cards:  (5D, 7F)
 Centers:       3      4      6      8      9     11     12     13     14     15
 Centers:      16     17     22     31     35     36     37     38     39     40
 Centers:      43     44     45     46     47     48     51     52     53     54
 Centers:      55     56     59     63     67     71     75     79     83     87
 Centers:      91      5      7     10     24     25     32     33     34     41
 Centers:      42     49     50     57     58     60     61     62     64     65
 Centers:      66     68     69     70     72     73     74     76     77     78
 Centers:      80     81     82     84     85     86     88     89     90     92
 Centers:      93     94     19     26     27     28     29     18      2     23
 Centers:      20     21     30      1
 def2tzvp
 ****
 ======================================================================================================
                                       Pseudopotential Parameters
 ======================================================================================================
  Center     Atomic      Valence      Angular      Power
  Number     Number     Electrons     Momentum     of R      Exponent        Coefficient   SO-Coeffient
 ======================================================================================================
    1         46           18
                                      G and up 
                                                     2        1.0000000        0.00000000    0.00000000
                                      S - G
                                                     2       12.4300000      240.22904000    0.00000000
                                                     2        6.1707590       35.17194300    0.00000000
                                      P - G
                                                     2       11.0800000      170.41727600    0.00000000
                                                     2        5.8295540       28.47213300    0.00000000
                                      D - G
                                                     2        9.5100000       69.01384500    0.00000000
                                                     2        4.1397810       11.75086200    0.00000000
                                      F - G
                                                     2       13.2700000      -31.92955400    0.00000000
                                                     2        6.6300000       -5.39821700    0.00000000
    2         15
                                   No pseudopotential on this center.
    3          6
                                   No pseudopotential on this center.
    4          6
                                   No pseudopotential on this center.
    5          1
                                   No pseudopotential on this center.
    6          6
                                   No pseudopotential on this center.
    7          1
                                   No pseudopotential on this center.
    8          6
                                   No pseudopotential on this center.
    9          6
                                   No pseudopotential on this center.
   10          1
                                   No pseudopotential on this center.
   11          6
                                   No pseudopotential on this center.
   12          6
                                   No pseudopotential on this center.
   13          6
                                   No pseudopotential on this center.
   14          6
                                   No pseudopotential on this center.
   15          6
                                   No pseudopotential on this center.
   16          6
                                   No pseudopotential on this center.
   17          6
                                   No pseudopotential on this center.
   18          7
                                   No pseudopotential on this center.
   19         16
                                   No pseudopotential on this center.
   20          8
                                   No pseudopotential on this center.
   21          8
                                   No pseudopotential on this center.
   22          6
                                   No pseudopotential on this center.
   23         17
                                   No pseudopotential on this center.
   24          1
                                   No pseudopotential on this center.
   25          1
                                   No pseudopotential on this center.
   26          9
                                   No pseudopotential on this center.
   27          9
                                   No pseudopotential on this center.
   28          9
                                   No pseudopotential on this center.
   29          9
                                   No pseudopotential on this center.
   30          8
                                   No pseudopotential on this center.
   31          6
                                   No pseudopotential on this center.
   32          1
                                   No pseudopotential on this center.
   33          1
                                   No pseudopotential on this center.
   34          1
                                   No pseudopotential on this center.
   35          6
                                   No pseudopotential on this center.
   36          6
                                   No pseudopotential on this center.
   37          6
                                   No pseudopotential on this center.
   38          6
                                   No pseudopotential on this center.
   39          6
                                   No pseudopotential on this center.
   40          6
                                   No pseudopotential on this center.
   41          1
                                   No pseudopotential on this center.
   42          1
                                   No pseudopotential on this center.
   43          6
                                   No pseudopotential on this center.
   44          6
                                   No pseudopotential on this center.
   45          6
                                   No pseudopotential on this center.
   46          6
                                   No pseudopotential on this center.
   47          6
                                   No pseudopotential on this center.
   48          6
                                   No pseudopotential on this center.
   49          1
                                   No pseudopotential on this center.
   50          1
                                   No pseudopotential on this center.
   51          6
                                   No pseudopotential on this center.
   52          6
                                   No pseudopotential on this center.
   53          6
                                   No pseudopotential on this center.
   54          6
                                   No pseudopotential on this center.
   55          6
                                   No pseudopotential on this center.
   56          6
                                   No pseudopotential on this center.
   57          1
                                   No pseudopotential on this center.
   58          1
                                   No pseudopotential on this center.
   59          6
                                   No pseudopotential on this center.
   60          1
                                   No pseudopotential on this center.
   61          1
                                   No pseudopotential on this center.
   62          1
                                   No pseudopotential on this center.
   63          6
                                   No pseudopotential on this center.
   64          1
                                   No pseudopotential on this center.
   65          1
                                   No pseudopotential on this center.
   66          1
                                   No pseudopotential on this center.
   67          6
                                   No pseudopotential on this center.
   68          1
                                   No pseudopotential on this center.
   69          1
                                   No pseudopotential on this center.
   70          1
                                   No pseudopotential on this center.
   71          6
                                   No pseudopotential on this center.
   72          1
                                   No pseudopotential on this center.
   73          1
                                   No pseudopotential on this center.
   74          1
                                   No pseudopotential on this center.
   75          6
                                   No pseudopotential on this center.
   76          1
                                   No pseudopotential on this center.
   77          1
                                   No pseudopotential on this center.
   78          1
                                   No pseudopotential on this center.
   79          6
                                   No pseudopotential on this center.
   80          1
                                   No pseudopotential on this center.
   81          1
                                   No pseudopotential on this center.
   82          1
                                   No pseudopotential on this center.
   83          6
                                   No pseudopotential on this center.
   84          1
                                   No pseudopotential on this center.
   85          1
                                   No pseudopotential on this center.
   86          1
                                   No pseudopotential on this center.
   87          6
                                   No pseudopotential on this center.
   88          1
                                   No pseudopotential on this center.
   89          1
                                   No pseudopotential on this center.
   90          1
                                   No pseudopotential on this center.
   91          6
                                   No pseudopotential on this center.
   92          1
                                   No pseudopotential on this center.
   93          1
                                   No pseudopotential on this center.
   94          1
                                   No pseudopotential on this center.
 ======================================================================================================
 Ernie: Thresh=  0.10000D-02 Tol=  0.10000D-05 Strict=F.
 There are  2182 symmetry adapted cartesian basis functions of A   symmetry.
 There are  1916 symmetry adapted basis functions of A   symmetry.
  1916 basis functions,  3108 primitive gaussians,  2182 cartesian basis functions
   210 alpha electrons      210 beta electrons
       nuclear repulsion energy      9366.8602805298 Hartrees.
 IExCor= 4639 DFT=T Ex+Corr=wB97XD ExCW=0 ScaHFX=  1.000000
 ScaDFX=  1.000000  1.000000  1.000000  1.000000 ScalE2=  1.000000  1.000000
 IRadAn=      5 IRanWt=     -1 IRanGd=            0 ICorTp=0 IEmpDi=121
  HFx wShort=  0.000000 wLong=  0.200000 cFull=  0.222036 cShort=  0.000000 cLong=  0.777964
  DFx wShort=  0.000000 wLong=  0.200000 cFull=  0.000000 cShort=  0.000000 cLong=  1.000000
 NAtoms=   94 NActive=   94 NUniq=   94 SFac= 1.00D+00 NAtFMM=   60 NAOKFM=T Big=T
 Integral buffers will be    131072 words long.
 Raffenetti 2 integral format.
 Two-electron integral symmetry is turned on.
 R6Disp:  Grimme-D2 Dispersion energy=       -0.1215586271 Hartrees.
 Nuclear repulsion after empirical dispersion term =     9366.7387219027 Hartrees.
 ------------------------------------------------------------------------------
 Polarizable Continuum Model (PCM)
 =================================
 Model                : PCM (using non-symmetric T matrix).
 Atomic radii         : SMD-Coulomb.
 Polarization charges : Total charges.
 Charge compensation  : None.
 Solution method      : On-the-fly selection.
 Cavity type          : VdW (van der Waals Surface) (Alpha=1.000).
 Cavity algorithm     : GePol (No added spheres)
                        Default sphere list used, NSphG=   94.
                        Lebedev-Laikov grids with approx.  5.0 points / Ang**2.
                        Smoothing algorithm: Karplus/York (Gamma=1.0000).
                        Polarization charges: spherical gaussians, with
                                              point-specific exponents (IZeta= 3).
                        Self-potential: point-specific (ISelfS= 7).
                        Self-field    : sphere-specific E.n sum rule (ISelfD= 2).
 Solvent              : Dichloromethane, Eps=   8.930000 Eps(inf)=   2.028346
 ------------------------------------------------------------------------------
 GePol: Number of generator spheres                  =      94
 GePol: Total number of spheres                      =      94
 GePol: Number of exposed spheres                    =      94 (100.00%)
 GePol: Number of points                             =    6359
 GePol: Average weight of points                     =       0.11
 GePol: Minimum weight of points                     =   0.10D-09
 GePol: Maximum weight of points                     =    0.21501
 GePol: Number of points with low weight             =     439
 GePol: Fraction of low-weight points (<1% of avg)   =       6.90%
 GePol: Cavity surface area                          =    724.852 Ang**2
 GePol: Cavity volume                                =    794.064 Ang**3
 ------------------------------------------------------------------------------
 Atomic radii for non-electrostatic terms: SMD-CDS.
 ------------------------------------------------------------------------------
 PCM non-electrostatic energy =        -0.0144574777 Hartrees.
 Nuclear repulsion after PCM non-electrostatic terms =     9366.7242644250 Hartrees.
 Leave Link  301 at Tue Nov 28 17:31:40 2023, MaxMem=  2147483648 cpu:         0.6
 (Enter /cluster/apps/gaussian/g09/l302.exe)
 NPDir=0 NMtPBC=     1 NCelOv=     1 NCel=       1 NClECP=     1 NCelD=      1
         NCelK=      1 NCelE2=     1 NClLst=     1 CellRange=     0.0.
 One-electron integrals computed using PRISM.
   1 Symmetry operations used in ECPInt.
 ECPInt:  NShTT=  286146 NPrTT=  883778 LenC2=  212837 LenP2D=  424835.
 LDataN:  DoStor=T MaxTD1= 7 Len=  274
 NBasis=  1916 RedAO= T EigKep=  2.91D-06  NBF=  1916
 NBsUse=  1916 1.00D-06 EigRej= -1.00D+00 NBFU=  1916
 Precomputing XC quadrature grid using
 IXCGrd= 4 IRadAn=           5 IRanWt=          -1 IRanGd=           0 AccXCQ= 0.00D+00.
 Defaulting to unpruned grid for atomic number  46.
 Generated NRdTot=       0 NPtTot=           0 NUsed=           0 NTot=          32
 NSgBfM=  1939  1940  1958  1962  1963 MxSgAt=    94 MxSgA2=    94.
 Leave Link  302 at Tue Nov 28 17:31:55 2023, MaxMem=  2147483648 cpu:       119.2
 (Enter /cluster/apps/gaussian/g09/l303.exe)
 DipDrv:  MaxL=1.
 Leave Link  303 at Tue Nov 28 17:31:56 2023, MaxMem=  2147483648 cpu:         5.1
 (Enter /cluster/apps/gaussian/g09/l401.exe)
 ExpMin= 3.70D-02 ExpMax= 6.95D+04 ExpMxC= 2.37D+03 IAcc=3 IRadAn=         5 AccDes= 0.00D+00
 Harris functional with IExCor= 4639 and IRadAn=       5 diagonalized for initial guess.
 HarFok:  IExCor= 4639 AccDes= 0.00D+00 IRadAn=         5 IDoV= 1 UseB2=F ITyADJ=14
 ICtDFT=  3500011 ScaDFX=  1.000000  1.000000  1.000000  1.000000
 Defaulting to unpruned grid for atomic number  46.
 Defaulting to unpruned grid for atomic number  46.
 Defaulting to unpruned grid for atomic number  46.
 Defaulting to unpruned grid for atomic number  46.
 Defaulting to unpruned grid for atomic number  46.
 Defaulting to unpruned grid for atomic number  46.
 Defaulting to unpruned grid for atomic number  46.
 Defaulting to unpruned grid for atomic number  46.
 FoFCou: FMM=F IPFlag=           0 FMFlag=      100000 FMFlg1=        2001
         NFxFlg=           0 DoJE=T BraDBF=F KetDBF=T FulRan=T
         wScrn=  0.000000 ICntrl=     500 IOpCl=  0 I1Cent=   200000004 NGrid=           0
         NMat0=    1 NMatS0=      1 NMatT0=    0 NMatD0=    1 NMtDS0=    0 NMtDT0=    0
 Petite list used in FoFCou.
 Harris En= -3475.32314393851    
 JPrj=0 DoOrth=F DoCkMO=F.
 Leave Link  401 at Tue Nov 28 17:32:56 2023, MaxMem=  2147483648 cpu:       475.3
 (Enter /cluster/apps/gaussian/g09/l502.exe)
 Closed shell SCF:
 Using DIIS extrapolation, IDIIS=  1040.
 Integral symmetry usage will be decided dynamically.
 IVT=    14335330 IEndB=    14335330 NGot=  2147483648 MDV=  2137928265
 LenX=  2137928265 LenY=  2133164959
 Requested convergence on RMS density matrix=1.00D-08 within 128 cycles.
 Requested convergence on MAX density matrix=1.00D-06.
 Requested convergence on             energy=1.00D-06.
 No special actions if energy rises.
 Fock matrices will be formed incrementally for  20 cycles.

 Cycle   1  Pass 1  IDiag  1:
 FoFJK:  IHMeth= 1 ICntrl=       0 DoSepK=T KAlg= 0 I1Cent=   0 FoldK=F
 IRaf=         1 NMat=   1 IRICut=       1 DoRegI=T DoRafI=F ISym2E= 0.
 FoFCou: FMM=T IPFlag=           0 FMFlag=      100000 FMFlg1=        2001
         NFxFlg=           0 DoJE=T BraDBF=F KetDBF=F FulRan=T
         wScrn=  0.000000 ICntrl=     500 IOpCl=  0 I1Cent=           0 NGrid=           0
         NMat0=    1 NMatS0=      1 NMatT0=    0 NMatD0=    1 NMtDS0=    0 NMtDT0=    0
 Symmetry not used in FoFCou.
 FMM levels:  10  Number of levels for PrismC:   9
 Defaulting to unpruned grid for atomic number  46.
 Defaulting to unpruned grid for atomic number  46.
 Defaulting to unpruned grid for atomic number  46.
 Defaulting to unpruned grid for atomic number  46.
 Defaulting to unpruned grid for atomic number  46.
 Defaulting to unpruned grid for atomic number  46.
 Defaulting to unpruned grid for atomic number  46.
 Defaulting to unpruned grid for atomic number  46.
 Inv3:  Mode=1 IEnd=   121310643.
 Iteration    1 A*A^-1 deviation from unit magnitude is 1.11D-14 for    792.
 Iteration    1 A*A^-1 deviation from orthogonality  is 1.04D-14 for   6323   5944.
 Iteration    1 A^-1*A deviation from unit magnitude is 1.07D-14 for   6352.
 Iteration    1 A^-1*A deviation from orthogonality  is 9.82D-11 for   5094   5093.
 E= -3579.48048116118    
 DIIS: error= 3.57D-02 at cycle   1 NSaved=   1.
 NSaved= 1 IEnMin= 1 EnMin= -3579.48048116118     IErMin= 1 ErrMin= 3.57D-02
 ErrMax= 3.57D-02  0.00D+00 EMaxC= 1.00D-01 BMatC= 1.53D+01 BMatP= 1.53D+01
 IDIUse=3 WtCom= 6.43D-01 WtEn= 3.57D-01
 Coeff-Com:  0.100D+01
 Coeff-En:   0.100D+01
 Coeff:      0.100D+01
 Gap=     0.097 Goal=   None    Shift=    0.000
 GapD=    0.097 DampG=0.500 DampE=0.250 DampFc=0.1250 IDamp=-1.
 Damping current iteration by 1.25D-01
 RMSDP=2.19D-01 MaxDP=6.25D+01              OVMax= 9.83D-01

 Cycle   2  Pass 1  IDiag  1:
 RMSU=  2.60D-02    CP:  1.98D+00
 E= -3582.18550105650     Delta-E=       -2.705019895318 Rises=F Damp=T
 DIIS: error= 2.95D-02 at cycle   2 NSaved=   2.
 NSaved= 2 IEnMin= 2 EnMin= -3582.18550105650     IErMin= 2 ErrMin= 2.95D-02
 ErrMax= 2.95D-02  0.00D+00 EMaxC= 1.00D-01 BMatC= 6.28D+00 BMatP= 1.53D+01
 IDIUse=3 WtCom= 7.05D-01 WtEn= 2.95D-01
 Coeff-Com: -0.719D+00 0.172D+01
 Coeff-En:   0.226D+00 0.774D+00
 Coeff:     -0.440D+00 0.144D+01
 Gap=     0.231 Goal=   None    Shift=    0.000
 RMSDP=2.75D-02 MaxDP=8.18D+00 DE=-2.71D+00 OVMax= 9.27D-01

 Cycle   3  Pass 1  IDiag  1:
 RMSU=  4.42D-03    CP:  5.52D-01  6.46D-02
 E= -3590.99112333773     Delta-E=       -8.805622281236 Rises=F Damp=F
 DIIS: error= 1.93D-02 at cycle   3 NSaved=   3.
 NSaved= 3 IEnMin= 3 EnMin= -3590.99112333773     IErMin= 3 ErrMin= 1.93D-02
 ErrMax= 1.93D-02  0.00D+00 EMaxC= 1.00D-01 BMatC= 4.23D+00 BMatP= 6.28D+00
 IDIUse=3 WtCom= 8.07D-01 WtEn= 1.93D-01
 Coeff-Com: -0.220D+00 0.704D+00 0.516D+00
 Coeff-En:   0.183D+00 0.000D+00 0.817D+00
 Coeff:     -0.142D+00 0.568D+00 0.574D+00
 Gap=    -0.247 Goal=   None    Shift=    0.000
 RMSDP=3.70D-03 MaxDP=1.27D+00 DE=-8.81D+00 OVMax= 4.15D-01

 Cycle   4  Pass 1  IDiag  1:
 RMSU=  2.59D-03    CP:  4.70D-01  1.61D-02  4.98D-01
 E= -3593.45454698892     Delta-E=       -2.463423651190 Rises=F Damp=F
 DIIS: error= 1.22D-02 at cycle   4 NSaved=   4.
 NSaved= 4 IEnMin= 4 EnMin= -3593.45454698892     IErMin= 4 ErrMin= 1.22D-02
 ErrMax= 1.22D-02  0.00D+00 EMaxC= 1.00D-01 BMatC= 1.64D+00 BMatP= 4.23D+00
 IDIUse=3 WtCom= 8.78D-01 WtEn= 1.22D-01
 Coeff-Com: -0.721D-01 0.185D+00 0.351D+00 0.536D+00
 Coeff-En:   0.000D+00 0.000D+00 0.275D+00 0.725D+00
 Coeff:     -0.633D-01 0.163D+00 0.342D+00 0.559D+00
 Gap=     0.332 Goal=   None    Shift=    0.000
 RMSDP=1.58D-03 MaxDP=3.70D-01 DE=-2.46D+00 OVMax= 2.26D-01

 Cycle   5  Pass 1  IDiag  1:
 RMSU=  1.22D-03    CP:  4.38D-01  9.02D-03  5.96D-01  6.70D-01
 E= -3594.70471166108     Delta-E=       -1.250164672161 Rises=F Damp=F
 DIIS: error= 3.23D-03 at cycle   5 NSaved=   5.
 NSaved= 5 IEnMin= 5 EnMin= -3594.70471166108     IErMin= 5 ErrMin= 3.23D-03
 ErrMax= 3.23D-03  0.00D+00 EMaxC= 1.00D-01 BMatC= 7.08D-02 BMatP= 1.64D+00
 IDIUse=3 WtCom= 9.68D-01 WtEn= 3.23D-02
 Coeff-Com: -0.431D-02 0.115D-01 0.722D-01 0.190D+00 0.730D+00
 Coeff-En:   0.000D+00 0.000D+00 0.000D+00 0.000D+00 0.100D+01
 Coeff:     -0.417D-02 0.112D-01 0.699D-01 0.184D+00 0.739D+00
 Gap=     0.277 Goal=   None    Shift=    0.000
 RMSDP=4.98D-04 MaxDP=1.33D-01 DE=-1.25D+00 OVMax= 6.76D-02

 Cycle   6  Pass 1  IDiag  1:
 RMSU=  3.55D-04    CP:  4.27D-01  2.98D-03  5.72D-01  7.45D-01  8.38D-01
 E= -3594.75024895528     Delta-E=       -0.045537294198 Rises=F Damp=F
 DIIS: error= 1.65D-03 at cycle   6 NSaved=   6.
 NSaved= 6 IEnMin= 6 EnMin= -3594.75024895528     IErMin= 6 ErrMin= 1.65D-03
 ErrMax= 1.65D-03  0.00D+00 EMaxC= 1.00D-01 BMatC= 2.22D-02 BMatP= 7.08D-02
 IDIUse=3 WtCom= 9.84D-01 WtEn= 1.65D-02
 Coeff-Com:  0.464D-02-0.789D-02-0.681D-02 0.409D-02 0.370D+00 0.636D+00
 Coeff-En:   0.000D+00 0.000D+00 0.000D+00 0.000D+00 0.190D+00 0.810D+00
 Coeff:      0.456D-02-0.776D-02-0.669D-02 0.402D-02 0.367D+00 0.638D+00
 Gap=     0.287 Goal=   None    Shift=    0.000
 RMSDP=2.05D-04 MaxDP=4.01D-02 DE=-4.55D-02 OVMax= 3.11D-02

 Cycle   7  Pass 1  IDiag  1:
 RMSU=  1.18D-04    CP:  4.29D-01  4.42D-03  5.71D-01  7.22D-01  9.56D-01
                    CP:  8.74D-01
 E= -3594.76828626848     Delta-E=       -0.018037313195 Rises=F Damp=F
 DIIS: error= 1.96D-04 at cycle   7 NSaved=   7.
 NSaved= 7 IEnMin= 7 EnMin= -3594.76828626848     IErMin= 7 ErrMin= 1.96D-04
 ErrMax= 1.96D-04  0.00D+00 EMaxC= 1.00D-01 BMatC= 5.86D-04 BMatP= 2.22D-02
 IDIUse=3 WtCom= 9.98D-01 WtEn= 1.96D-03
 Coeff-Com: -0.618D-03 0.361D-03-0.480D-02-0.863D-02 0.694D-01 0.196D+00
 Coeff-Com:  0.748D+00
 Coeff-En:   0.000D+00 0.000D+00 0.000D+00 0.000D+00 0.000D+00 0.000D+00
 Coeff-En:   0.100D+01
 Coeff:     -0.617D-03 0.361D-03-0.480D-02-0.862D-02 0.693D-01 0.196D+00
 Coeff:      0.749D+00
 Gap=     0.287 Goal=   None    Shift=    0.000
 RMSDP=3.38D-05 MaxDP=5.54D-03 DE=-1.80D-02 OVMax= 9.36D-03

 Cycle   8  Pass 1  IDiag  1:
 RMSU=  3.03D-05    CP:  4.29D-01  4.47D-03  5.71D-01  7.23D-01  9.60D-01
                    CP:  9.08D-01  1.05D+00
 E= -3594.76897443765     Delta-E=       -0.000688169173 Rises=F Damp=F
 DIIS: error= 1.59D-04 at cycle   8 NSaved=   8.
 NSaved= 8 IEnMin= 8 EnMin= -3594.76897443765     IErMin= 8 ErrMin= 1.59D-04
 ErrMax= 1.59D-04  0.00D+00 EMaxC= 1.00D-01 BMatC= 1.36D-04 BMatP= 5.86D-04
 IDIUse=3 WtCom= 9.98D-01 WtEn= 1.59D-03
 Coeff-Com: -0.198D-02 0.260D-02-0.106D-02-0.505D-02-0.128D-01 0.695D-02
 Coeff-Com:  0.311D+00 0.700D+00
 Coeff-En:   0.000D+00 0.000D+00 0.000D+00 0.000D+00 0.000D+00 0.000D+00
 Coeff-En:   0.000D+00 0.100D+01
 Coeff:     -0.198D-02 0.260D-02-0.106D-02-0.504D-02-0.128D-01 0.694D-02
 Coeff:      0.311D+00 0.701D+00
 Gap=     0.286 Goal=   None    Shift=    0.000
 RMSDP=2.13D-05 MaxDP=4.46D-03 DE=-6.88D-04 OVMax= 4.03D-03

 Cycle   9  Pass 1  IDiag  1:
 RMSU=  1.76D-05    CP:  4.30D-01  4.61D-03  5.71D-01  7.23D-01  9.56D-01
                    CP:  9.23D-01  1.08D+00  1.17D+00
 E= -3594.76917001239     Delta-E=       -0.000195574736 Rises=F Damp=F
 DIIS: error= 6.96D-05 at cycle   9 NSaved=   9.
 NSaved= 9 IEnMin= 9 EnMin= -3594.76917001239     IErMin= 9 ErrMin= 6.96D-05
 ErrMax= 6.96D-05  0.00D+00 EMaxC= 1.00D-01 BMatC= 2.50D-05 BMatP= 1.36D-04
 IDIUse=1 WtCom= 1.00D+00 WtEn= 0.00D+00
 Coeff-Com: -0.879D-03 0.983D-03-0.753D-04-0.232D-02-0.687D-02-0.153D-01
 Coeff-Com:  0.475D-03 0.187D+00 0.837D+00
 Coeff:     -0.879D-03 0.983D-03-0.753D-04-0.232D-02-0.687D-02-0.153D-01
 Coeff:      0.475D-03 0.187D+00 0.837D+00
 Gap=     0.286 Goal=   None    Shift=    0.000
 RMSDP=1.01D-05 MaxDP=1.82D-03 DE=-1.96D-04 OVMax= 2.88D-03

 Cycle  10  Pass 1  IDiag  1:
 RMSU=  5.53D-06    CP:  4.30D-01  4.74D-03  5.72D-01  7.23D-01  9.58D-01
                    CP:  9.26D-01  1.10D+00  1.33D+00  1.24D+00
 E= -3594.76921432824     Delta-E=       -0.000044315851 Rises=F Damp=F
 DIIS: error= 2.62D-05 at cycle  10 NSaved=  10.
 NSaved=10 IEnMin=10 EnMin= -3594.76921432824     IErMin=10 ErrMin= 2.62D-05
 ErrMax= 2.62D-05  0.00D+00 EMaxC= 1.00D-01 BMatC= 7.20D-06 BMatP= 2.50D-05
 IDIUse=1 WtCom= 1.00D+00 WtEn= 0.00D+00
 Coeff-Com:  0.452D-04-0.117D-03 0.237D-03-0.611D-03 0.276D-02-0.421D-02
 Coeff-Com: -0.647D-01-0.102D+00 0.354D+00 0.814D+00
 Coeff:      0.452D-04-0.117D-03 0.237D-03-0.611D-03 0.276D-02-0.421D-02
 Coeff:     -0.647D-01-0.102D+00 0.354D+00 0.814D+00
 Gap=     0.286 Goal=   None    Shift=    0.000
 RMSDP=5.30D-06 MaxDP=9.68D-04 DE=-4.43D-05 OVMax= 1.59D-03

 Cycle  11  Pass 1  IDiag  1:
 RMSU=  2.38D-06    CP:  4.30D-01  4.79D-03  5.72D-01  7.22D-01  9.57D-01
                    CP:  9.26D-01  1.11D+00  1.40D+00  1.44D+00  1.20D+00
 E= -3594.76922604441     Delta-E=       -0.000011716173 Rises=F Damp=F
 DIIS: error= 1.33D-05 at cycle  11 NSaved=  11.
 NSaved=11 IEnMin=11 EnMin= -3594.76922604441     IErMin=11 ErrMin= 1.33D-05
 ErrMax= 1.33D-05  0.00D+00 EMaxC= 1.00D-01 BMatC= 7.62D-07 BMatP= 7.20D-06
 IDIUse=1 WtCom= 1.00D+00 WtEn= 0.00D+00
 Coeff-Com:  0.130D-03-0.150D-03 0.250D-04-0.266D-03 0.125D-02-0.354D-03
 Coeff-Com: -0.192D-01-0.472D-01 0.328D-01 0.321D+00 0.712D+00
 Coeff:      0.130D-03-0.150D-03 0.250D-04-0.266D-03 0.125D-02-0.354D-03
 Coeff:     -0.192D-01-0.472D-01 0.328D-01 0.321D+00 0.712D+00
 Gap=     0.286 Goal=   None    Shift=    0.000
 RMSDP=1.59D-06 MaxDP=2.67D-04 DE=-1.17D-05 OVMax= 4.53D-04

 Cycle  12  Pass 1  IDiag  1:
 RMSU=  9.69D-07    CP:  4.30D-01  4.80D-03  5.72D-01  7.22D-01  9.58D-01
                    CP:  9.27D-01  1.11D+00  1.41D+00  1.45D+00  1.32D+00
                    CP:  1.16D+00
 E= -3594.76922745657     Delta-E=       -0.000001412158 Rises=F Damp=F
 DIIS: error= 8.15D-06 at cycle  12 NSaved=  12.
 NSaved=12 IEnMin=12 EnMin= -3594.76922745657     IErMin=12 ErrMin= 8.15D-06
 ErrMax= 8.15D-06  0.00D+00 EMaxC= 1.00D-01 BMatC= 1.37D-07 BMatP= 7.62D-07
 IDIUse=1 WtCom= 1.00D+00 WtEn= 0.00D+00
 Coeff-Com:  0.656D-04-0.734D-04-0.398D-04 0.335D-04-0.103D-02-0.911D-03
 Coeff-Com:  0.603D-02 0.149D-01-0.462D-01-0.526D-01 0.137D+00 0.943D+00
 Coeff:      0.656D-04-0.734D-04-0.398D-04 0.335D-04-0.103D-02-0.911D-03
 Coeff:      0.603D-02 0.149D-01-0.462D-01-0.526D-01 0.137D+00 0.943D+00
 Gap=     0.286 Goal=   None    Shift=    0.000
 RMSDP=8.16D-07 MaxDP=9.64D-05 DE=-1.41D-06 OVMax= 3.57D-04

 Cycle  13  Pass 1  IDiag  1:
 RMSU=  5.21D-07    CP:  4.30D-01  4.80D-03  5.72D-01  7.22D-01  9.58D-01
                    CP:  9.27D-01  1.11D+00  1.41D+00  1.46D+00  1.38D+00
                    CP:  1.32D+00  1.25D+00
 E= -3594.76922789274     Delta-E=       -0.000000436172 Rises=F Damp=F
 DIIS: error= 2.31D-06 at cycle  13 NSaved=  13.
 NSaved=13 IEnMin=13 EnMin= -3594.76922789274     IErMin=13 ErrMin= 2.31D-06
 ErrMax= 2.31D-06  0.00D+00 EMaxC= 1.00D-01 BMatC= 3.14D-08 BMatP= 1.37D-07
 IDIUse=1 WtCom= 1.00D+00 WtEn= 0.00D+00
 Coeff-Com:  0.577D-05-0.597D-05-0.254D-05 0.128D-03-0.767D-03-0.662D-03
 Coeff-Com:  0.422D-02 0.132D-01-0.221D-01-0.813D-01-0.127D+00 0.316D+00
 Coeff-Com:  0.899D+00
 Coeff:      0.577D-05-0.597D-05-0.254D-05 0.128D-03-0.767D-03-0.662D-03
 Coeff:      0.422D-02 0.132D-01-0.221D-01-0.813D-01-0.127D+00 0.316D+00
 Coeff:      0.899D+00
 Gap=     0.286 Goal=   None    Shift=    0.000
 RMSDP=4.83D-07 MaxDP=5.01D-05 DE=-4.36D-07 OVMax= 2.07D-04

 Cycle  14  Pass 1  IDiag  1:
 RMSU=  2.62D-07    CP:  4.30D-01  4.80D-03  5.72D-01  7.22D-01  9.58D-01
                    CP:  9.27D-01  1.11D+00  1.41D+00  1.46D+00  1.41D+00
                    CP:  1.39D+00  1.51D+00  1.26D+00
 E= -3594.76922801061     Delta-E=       -0.000000117871 Rises=F Damp=F
 DIIS: error= 9.51D-07 at cycle  14 NSaved=  14.
 NSaved=14 IEnMin=14 EnMin= -3594.76922801061     IErMin=14 ErrMin= 9.51D-07
 ErrMax= 9.51D-07  0.00D+00 EMaxC= 1.00D-01 BMatC= 5.16D-09 BMatP= 3.14D-08
 IDIUse=1 WtCom= 1.00D+00 WtEn= 0.00D+00
 Coeff-Com: -0.617D-05 0.643D-05 0.194D-05 0.368D-04-0.597D-04 0.300D-04
 Coeff-Com:  0.104D-02 0.253D-02-0.190D-02-0.224D-01-0.631D-01-0.103D-01
 Coeff-Com:  0.314D+00 0.780D+00
 Coeff:     -0.617D-05 0.643D-05 0.194D-05 0.368D-04-0.597D-04 0.300D-04
 Coeff:      0.104D-02 0.253D-02-0.190D-02-0.224D-01-0.631D-01-0.103D-01
 Coeff:      0.314D+00 0.780D+00
 Gap=     0.286 Goal=   None    Shift=    0.000
 RMSDP=1.59D-07 MaxDP=2.33D-05 DE=-1.18D-07 OVMax= 6.04D-05

 Cycle  15  Pass 1  IDiag  1:
 RMSU=  8.82D-08    CP:  4.30D-01  4.80D-03  5.72D-01  7.22D-01  9.58D-01
                    CP:  9.27D-01  1.11D+00  1.41D+00  1.46D+00  1.41D+00
                    CP:  1.40D+00  1.55D+00  1.45D+00  1.09D+00
 E= -3594.76922802631     Delta-E=       -0.000000015703 Rises=F Damp=F
 DIIS: error= 3.69D-07 at cycle  15 NSaved=  15.
 NSaved=15 IEnMin=15 EnMin= -3594.76922802631     IErMin=15 ErrMin= 3.69D-07
 ErrMax= 3.69D-07  0.00D+00 EMaxC= 1.00D-01 BMatC= 1.37D-09 BMatP= 5.16D-09
 IDIUse=1 WtCom= 1.00D+00 WtEn= 0.00D+00
 Coeff-Com: -0.386D-05 0.459D-05 0.129D-05-0.125D-04 0.150D-03 0.211D-03
 Coeff-Com: -0.377D-04-0.141D-02 0.148D-02 0.435D-02 0.200D-02-0.455D-01
 Coeff-Com: -0.677D-01 0.270D+00 0.837D+00
 Coeff:     -0.386D-05 0.459D-05 0.129D-05-0.125D-04 0.150D-03 0.211D-03
 Coeff:     -0.377D-04-0.141D-02 0.148D-02 0.435D-02 0.200D-02-0.455D-01
 Coeff:     -0.677D-01 0.270D+00 0.837D+00
 Gap=     0.286 Goal=   None    Shift=    0.000
 RMSDP=8.59D-08 MaxDP=8.94D-06 DE=-1.57D-08 OVMax= 3.02D-05

 Cycle  16  Pass 1  IDiag  1:
 RMSU=  5.16D-08    CP:  4.30D-01  4.80D-03  5.72D-01  7.22D-01  9.58D-01
                    CP:  9.27D-01  1.11D+00  1.41D+00  1.46D+00  1.41D+00
                    CP:  1.41D+00  1.57D+00  1.50D+00  1.20D+00  1.43D+00
 E= -3594.76922802916     Delta-E=       -0.000000002850 Rises=F Damp=F
 DIIS: error= 1.85D-07 at cycle  16 NSaved=  16.
 NSaved=16 IEnMin=16 EnMin= -3594.76922802916     IErMin=16 ErrMin= 1.85D-07
 ErrMax= 1.85D-07  0.00D+00 EMaxC= 1.00D-01 BMatC= 2.87D-10 BMatP= 1.37D-09
 IDIUse=1 WtCom= 1.00D+00 WtEn= 0.00D+00
 Coeff-Com: -0.120D-05 0.149D-05-0.129D-06-0.113D-04 0.635D-04 0.723D-04
 Coeff-Com: -0.644D-04-0.762D-03 0.199D-03 0.433D-02 0.116D-01-0.713D-02
 Coeff-Com: -0.874D-01-0.602D-01 0.325D+00 0.814D+00
 Coeff:     -0.120D-05 0.149D-05-0.129D-06-0.113D-04 0.635D-04 0.723D-04
 Coeff:     -0.644D-04-0.762D-03 0.199D-03 0.433D-02 0.116D-01-0.713D-02
 Coeff:     -0.874D-01-0.602D-01 0.325D+00 0.814D+00
 Gap=     0.286 Goal=   None    Shift=    0.000
 RMSDP=5.97D-08 MaxDP=6.96D-06 DE=-2.85D-09 OVMax= 1.42D-05

 Cycle  17  Pass 1  IDiag  1:
 RMSU=  4.09D-08    CP:  4.30D-01  4.80D-03  5.72D-01  7.22D-01  9.58D-01
                    CP:  9.27D-01  1.11D+00  1.41D+00  1.46D+00  1.41D+00
                    CP:  1.41D+00  1.58D+00  1.52D+00  1.25D+00  1.73D+00
                    CP:  1.56D+00
 E= -3594.76922803124     Delta-E=       -0.000000002077 Rises=F Damp=F
 DIIS: error= 8.50D-08 at cycle  17 NSaved=  17.
 NSaved=17 IEnMin=17 EnMin= -3594.76922803124     IErMin=17 ErrMin= 8.50D-08
 ErrMax= 8.50D-08  0.00D+00 EMaxC= 1.00D-01 BMatC= 5.51D-11 BMatP= 2.87D-10
 IDIUse=1 WtCom= 1.00D+00 WtEn= 0.00D+00
 Coeff-Com: -0.232D-07-0.297D-07-0.275D-06-0.140D-05-0.844D-05-0.239D-04
 Coeff-Com: -0.181D-04 0.201D-04-0.193D-03 0.736D-03 0.353D-02 0.708D-02
 Coeff-Com: -0.205D-01-0.794D-01-0.446D-01 0.336D+00 0.798D+00
 Coeff:     -0.232D-07-0.297D-07-0.275D-06-0.140D-05-0.844D-05-0.239D-04
 Coeff:     -0.181D-04 0.201D-04-0.193D-03 0.736D-03 0.353D-02 0.708D-02
 Coeff:     -0.205D-01-0.794D-01-0.446D-01 0.336D+00 0.798D+00
 Gap=     0.286 Goal=   None    Shift=    0.000
 RMSDP=5.86D-08 MaxDP=5.27D-06 DE=-2.08D-09 OVMax= 6.72D-06

 Cycle  18  Pass 1  IDiag  1:
 RMSU=  3.51D-08    CP:  4.30D-01  4.80D-03  5.72D-01  7.22D-01  9.58D-01
                    CP:  9.27D-01  1.11D+00  1.41D+00  1.46D+00  1.41D+00
                    CP:  1.41D+00  1.58D+00  1.52D+00  1.27D+00  1.92D+00
                    CP:  2.09D+00  1.81D+00
 E= -3594.76922803117     Delta-E=        0.000000000071 Rises=F Damp=F
 DIIS: error= 5.03D-08 at cycle  18 NSaved=  18.
 NSaved=18 IEnMin=17 EnMin= -3594.76922803124     IErMin=18 ErrMin= 5.03D-08
 ErrMax= 5.03D-08  0.00D+00 EMaxC= 1.00D-01 BMatC= 9.22D-12 BMatP= 5.51D-11
 IDIUse=1 WtCom= 1.00D+00 WtEn= 0.00D+00
 Coeff-Com: -0.191D-07 0.890D-08-0.166D-06 0.128D-05-0.146D-04-0.227D-04
 Coeff-Com: -0.338D-05 0.128D-03-0.476D-04-0.374D-03-0.796D-03 0.287D-02
 Coeff-Com:  0.645D-02-0.178D-01-0.621D-01-0.798D-02 0.268D+00 0.812D+00
 Coeff:     -0.191D-07 0.890D-08-0.166D-06 0.128D-05-0.146D-04-0.227D-04
 Coeff:     -0.338D-05 0.128D-03-0.476D-04-0.374D-03-0.796D-03 0.287D-02
 Coeff:      0.645D-02-0.178D-01-0.621D-01-0.798D-02 0.268D+00 0.812D+00
 Gap=     0.286 Goal=   None    Shift=    0.000
 RMSDP=7.81D-08 MaxDP=5.56D-06 DE= 7.09D-11 OVMax= 2.76D-06

 Cycle  19  Pass 1  IDiag  1:
 RMSU=  3.52D-08    CP:  4.30D-01  4.80D-03  5.72D-01  7.22D-01  9.58D-01
                    CP:  9.27D-01  1.11D+00  1.41D+00  1.46D+00  1.41D+00
                    CP:  1.41D+00  1.57D+00  1.53D+00  1.27D+00  2.08D+00
                    CP:  2.56D+00  2.86D+00  2.29D+00
 E= -3594.76922803153     Delta-E=       -0.000000000364 Rises=F Damp=F
 DIIS: error= 6.99D-08 at cycle  19 NSaved=  19.
 NSaved=19 IEnMin=19 EnMin= -3594.76922803153     IErMin=18 ErrMin= 5.03D-08
 ErrMax= 6.99D-08  0.00D+00 EMaxC= 1.00D-01 BMatC= 3.57D-12 BMatP= 9.22D-12
 IDIUse=1 WtCom= 1.00D+00 WtEn= 0.00D+00
 Coeff-Com: -0.184D-07 0.262D-07-0.309D-07 0.633D-06-0.510D-05-0.724D-05
 Coeff-Com: -0.398D-05 0.427D-04 0.112D-04-0.144D-03-0.573D-03 0.412D-03
 Coeff-Com:  0.472D-02-0.299D-03-0.218D-01-0.388D-01 0.238D-01 0.326D+00
 Coeff-Com:  0.707D+00
 Coeff:     -0.184D-07 0.262D-07-0.309D-07 0.633D-06-0.510D-05-0.724D-05
 Coeff:     -0.398D-05 0.427D-04 0.112D-04-0.144D-03-0.573D-03 0.412D-03
 Coeff:      0.472D-02-0.299D-03-0.218D-01-0.388D-01 0.238D-01 0.326D+00
 Coeff:      0.707D+00
 Gap=     0.286 Goal=   None    Shift=    0.000
 RMSDP=1.01D-07 MaxDP=6.74D-06 DE=-3.64D-10 OVMax= 1.10D-06

 Cycle  20  Pass 1  IDiag  1:
 RMSU=  6.05D-08    CP:  4.30D-01  4.80D-03  5.72D-01  7.22D-01  9.58D-01
                    CP:  9.27D-01  1.11D+00  1.41D+00  1.46D+00  1.41D+00
                    CP:  1.41D+00  1.57D+00  1.54D+00  1.27D+00  2.25D+00
                    CP:  2.91D+00  3.00D+00  3.00D+00  2.45D+00
 E= -3594.76922803023     Delta-E=        0.000000001304 Rises=F Damp=F
 DIIS: error= 6.30D-08 at cycle  20 NSaved=  20.
 NSaved=20 IEnMin=19 EnMin= -3594.76922803153     IErMin=18 ErrMin= 5.03D-08
 ErrMax= 6.30D-08  0.00D+00 EMaxC= 1.00D-01 BMatC= 3.03D-12 BMatP= 3.57D-12
 IDIUse=1 WtCom= 1.00D+00 WtEn= 0.00D+00
 Coeff-Com: -0.111D-07 0.164D-07-0.120D-07 0.407D-06-0.378D-05-0.565D-05
 Coeff-Com: -0.231D-05 0.319D-04-0.365D-05-0.901D-04-0.329D-03 0.496D-03
 Coeff-Com:  0.284D-02-0.204D-02-0.165D-01-0.191D-01 0.353D-01 0.217D+00
 Coeff-Com:  0.320D+00 0.462D+00
 Coeff:     -0.111D-07 0.164D-07-0.120D-07 0.407D-06-0.378D-05-0.565D-05
 Coeff:     -0.231D-05 0.319D-04-0.365D-05-0.901D-04-0.329D-03 0.496D-03
 Coeff:      0.284D-02-0.204D-02-0.165D-01-0.191D-01 0.353D-01 0.217D+00
 Coeff:      0.320D+00 0.462D+00
 Gap=     0.286 Goal=   None    Shift=    0.000
 RMSDP=5.60D-08 MaxDP=4.23D-06 DE= 1.30D-09 OVMax= 2.04D-07

 Cycle  21  Pass 1  IDiag  1:
 Restarting incremental Fock formation.
 E= -3594.76922803459     Delta-E=       -0.000000004358 Rises=F Damp=F
 DIIS: error= 2.86D-07 at cycle  21 NSaved=  20.
 NSaved=20 IEnMin=20 EnMin= -3594.76922803459     IErMin=17 ErrMin= 5.03D-08
 ErrMax= 2.86D-07  0.00D+00 EMaxC= 1.00D-01 BMatC= 6.35D-11 BMatP= 3.03D-12
 IDIUse=1 WtCom= 1.00D+00 WtEn= 0.00D+00
 Coeff-Com:  0.386D-08 0.346D-08 0.341D-06-0.272D-05-0.387D-05-0.202D-05
 Coeff-Com:  0.229D-04 0.516D-06-0.727D-04-0.315D-03 0.238D-03 0.270D-02
 Coeff-Com:  0.676D-04-0.122D-01-0.232D-01 0.695D-02 0.157D+00 0.320D+00
 Coeff-Com:  0.445D+00 0.103D+00
 Coeff:      0.386D-08 0.346D-08 0.341D-06-0.272D-05-0.387D-05-0.202D-05
 Coeff:      0.229D-04 0.516D-06-0.727D-04-0.315D-03 0.238D-03 0.270D-02
 Coeff:      0.676D-04-0.122D-01-0.232D-01 0.695D-02 0.157D+00 0.320D+00
 Coeff:      0.445D+00 0.103D+00
 Gap=     0.286 Goal=   None    Shift=    0.000
 RMSDP=6.15D-08 MaxDP=9.00D-06 DE=-4.36D-09 OVMax= 2.07D-07

 Cycle  22  Pass 1  IDiag  1:
 RMSU=  6.14D-08    CP:  1.00D+00
 E= -3594.76922803493     Delta-E=       -0.000000000346 Rises=F Damp=F
 DIIS: error= 2.80D-07 at cycle  22 NSaved=  20.
 NSaved=20 IEnMin=20 EnMin= -3594.76922803493     IErMin=16 ErrMin= 5.03D-08
 ErrMax= 2.80D-07  0.00D+00 EMaxC= 1.00D-01 BMatC= 5.43D-11 BMatP= 3.03D-12
 IDIUse=1 WtCom= 1.00D+00 WtEn= 0.00D+00
 Coeff-Com:  0.129D-07 0.224D-06-0.164D-05-0.222D-05-0.110D-05 0.152D-04
 Coeff-Com:  0.573D-05-0.488D-04-0.264D-03 0.122D-04 0.211D-02 0.128D-02
 Coeff-Com: -0.729D-02-0.205D-01-0.884D-02 0.999D-01 0.335D+00 0.411D+00
 Coeff-Com: -0.109D+01 0.128D+01
 Coeff:      0.129D-07 0.224D-06-0.164D-05-0.222D-05-0.110D-05 0.152D-04
 Coeff:      0.573D-05-0.488D-04-0.264D-03 0.122D-04 0.211D-02 0.128D-02
 Coeff:     -0.729D-02-0.205D-01-0.884D-02 0.999D-01 0.335D+00 0.411D+00
 Coeff:     -0.109D+01 0.128D+01
 Gap=     0.286 Goal=   None    Shift=    0.000
 RMSDP=8.15D-08 MaxDP=7.58D-06 DE=-3.46D-10 OVMax= 2.35D-07

 Cycle  23  Pass 1  IDiag  1:
 RMSU=  5.63D-08    CP:  1.00D+00  1.96D+00
 E= -3594.76922803435     Delta-E=        0.000000000584 Rises=F Damp=F
 DIIS: error= 2.75D-07 at cycle  23 NSaved=  20.
 NSaved=20 IEnMin=19 EnMin= -3594.76922803493     IErMin=15 ErrMin= 5.03D-08
 ErrMax= 2.75D-07  0.00D+00 EMaxC= 1.00D-01 BMatC= 4.78D-11 BMatP= 3.03D-12
 IDIUse=1 WtCom= 1.00D+00 WtEn= 0.00D+00
 Coeff-Com:  0.160D-06-0.127D-05-0.160D-05-0.221D-06 0.125D-04 0.385D-06
 Coeff-Com: -0.430D-04-0.207D-03 0.351D-04 0.171D-02 0.112D-02-0.585D-02
 Coeff-Com: -0.171D-01-0.886D-02 0.796D-01 0.302D+00 0.419D+00-0.967D+00
 Coeff-Com:  0.276D+00 0.919D+00
 Coeff:      0.160D-06-0.127D-05-0.160D-05-0.221D-06 0.125D-04 0.385D-06
 Coeff:     -0.430D-04-0.207D-03 0.351D-04 0.171D-02 0.112D-02-0.585D-02
 Coeff:     -0.171D-01-0.886D-02 0.796D-01 0.302D+00 0.419D+00-0.967D+00
 Coeff:      0.276D+00 0.919D+00
 Gap=     0.286 Goal=   None    Shift=    0.000
 RMSDP=7.15D-08 MaxDP=5.60D-06 DE= 5.84D-10 OVMax= 1.37D-07

 Cycle  24  Pass 1  IDiag  1:
 RMSU=  4.15D-08    CP:  1.00D+00  2.74D+00  1.59D+00
 E= -3594.76922803526     Delta-E=       -0.000000000908 Rises=F Damp=F
 DIIS: error= 2.58D-07 at cycle  24 NSaved=  20.
 NSaved=20 IEnMin=20 EnMin= -3594.76922803526     IErMin=14 ErrMin= 5.03D-08
 ErrMax= 2.58D-07  0.00D+00 EMaxC= 1.00D-01 BMatC= 4.43D-11 BMatP= 3.03D-12
 IDIUse=1 WtCom= 1.00D+00 WtEn= 0.00D+00
 Coeff-Com: -0.532D-06-0.789D-06-0.283D-05 0.683D-06 0.145D-04 0.271D-04
 Coeff-Com: -0.704D-04-0.133D-03 0.899D-03 0.968D-03-0.336D-02-0.138D-01
 Coeff-Com: -0.116D-01 0.622D-01 0.286D+00 0.443D+00-0.792D+00 0.586D-01
 Coeff-Com:  0.468D+00 0.501D+00
 Coeff:     -0.532D-06-0.789D-06-0.283D-05 0.683D-06 0.145D-04 0.271D-04
 Coeff:     -0.704D-04-0.133D-03 0.899D-03 0.968D-03-0.336D-02-0.138D-01
 Coeff:     -0.116D-01 0.622D-01 0.286D+00 0.443D+00-0.792D+00 0.586D-01
 Coeff:      0.468D+00 0.501D+00
 Gap=     0.286 Goal=   None    Shift=    0.000
 RMSDP=3.72D-08 MaxDP=2.57D-06 DE=-9.08D-10 OVMax= 4.75D-08

 Cycle  25  Pass 1  IDiag  1:
 RMSU=  2.18D-08    CP:  1.00D+00  2.92D+00  1.94D+00  1.47D+00
 E= -3594.76922803419     Delta-E=        0.000000001070 Rises=F Damp=F
 DIIS: error= 2.67D-07 at cycle  25 NSaved=  20.
 NSaved=20 IEnMin=19 EnMin= -3594.76922803526     IErMin=13 ErrMin= 5.03D-08
 ErrMax= 2.67D-07  0.00D+00 EMaxC= 1.00D-01 BMatC= 4.41D-11 BMatP= 3.03D-12
 IDIUse=1 WtCom= 1.00D+00 WtEn= 0.00D+00
 Coeff-Com: -0.307D-07-0.325D-05-0.336D-05 0.159D-04 0.363D-04-0.676D-04
 Coeff-Com: -0.232D-03 0.827D-03 0.142D-02-0.239D-02-0.142D-01-0.150D-01
 Coeff-Com:  0.570D-01 0.288D+00 0.450D+00-0.794D+00 0.955D-01 0.429D+00
 Coeff-Com:  0.339D+00 0.166D+00
 Coeff:     -0.307D-07-0.325D-05-0.336D-05 0.159D-04 0.363D-04-0.676D-04
 Coeff:     -0.232D-03 0.827D-03 0.142D-02-0.239D-02-0.142D-01-0.150D-01
 Coeff:      0.570D-01 0.288D+00 0.450D+00-0.794D+00 0.955D-01 0.429D+00
 Coeff:      0.339D+00 0.166D+00
 Gap=     0.286 Goal=   None    Shift=    0.000
 RMSDP=7.32D-09 MaxDP=5.37D-07 DE= 1.07D-09 OVMax= 1.11D-08

 Cycle  26  Pass 1  IDiag  1:
 RMSU=  6.53D-09    CP:  1.00D+00  2.92D+00  1.97D+00  1.51D+00  1.12D+00
 E= -3594.76922803340     Delta-E=        0.000000000789 Rises=F Damp=F
 DIIS: error= 2.65D-07 at cycle  26 NSaved=  20.
 NSaved=20 IEnMin=18 EnMin= -3594.76922803526     IErMin=12 ErrMin= 5.03D-08
 ErrMax= 2.65D-07  0.00D+00 EMaxC= 1.00D-01 BMatC= 4.47D-11 BMatP= 3.03D-12
 IDIUse=1 WtCom= 1.00D+00 WtEn= 0.00D+00
 Coeff-Com: -0.308D-05-0.315D-05 0.154D-04 0.348D-04-0.694D-04-0.232D-03
 Coeff-Com:  0.831D-03 0.144D-02-0.236D-02-0.143D-01-0.152D-01 0.567D-01
 Coeff-Com:  0.288D+00 0.450D+00-0.793D+00 0.932D-01 0.423D+00 0.341D+00
 Coeff-Com:  0.235D+00-0.650D-01
 Coeff:     -0.308D-05-0.315D-05 0.154D-04 0.348D-04-0.694D-04-0.232D-03
 Coeff:      0.831D-03 0.144D-02-0.236D-02-0.143D-01-0.152D-01 0.567D-01
 Coeff:      0.288D+00 0.450D+00-0.793D+00 0.932D-01 0.423D+00 0.341D+00
 Coeff:      0.235D+00-0.650D-01
 Gap=     0.286 Goal=   None    Shift=    0.000
 RMSDP=2.21D-09 MaxDP=1.68D-07 DE= 7.89D-10 OVMax= 1.72D-09

 Error on total polarization charges =  0.05956
 SCF Done:  E(RwB97XD) =  -3594.76922803     A.U. after   26 cycles
            NFock= 26  Conv=0.22D-08     -V/T= 2.0267
 KE= 3.501369301089D+03 PE=-2.715431981851D+04 EE= 1.069145702496D+04
 SMD-CDS (non-electrostatic) energy       (kcal/mol) =      -9.07
 (included in total energy above)
 Leave Link  502 at Tue Nov 28 23:06:11 2023, MaxMem=  2147483648 cpu:    158273.2
 (Enter /cluster/apps/gaussian/g09/l601.exe)
 Copying SCF densities to generalized density rwf, IOpCl= 0 IROHF=0.

 **********************************************************************

            Population analysis using the SCF density.

 **********************************************************************

 Orbital symmetries:
       Occupied  (A) (A) (A) (A) (A) (A) (A) (A) (A) (A) (A) (A)
                 (A) (A) (A) (A) (A) (A) (A) (A) (A) (A) (A) (A)
                 (A) (A) (A) (A) (A) (A) (A) (A) (A) (A) (A) (A)
                 (A) (A) (A) (A) (A) (A) (A) (A) (A) (A) (A) (A)
                 (A) (A) (A) (A) (A) (A) (A) (A) (A) (A) (A) (A)
                 (A) (A) (A) (A) (A) (A) (A) (A) (A) (A) (A) (A)
                 (A) (A) (A) (A) (A) (A) (A) (A) (A) (A) (A) (A)
                 (A) (A) (A) (A) (A) (A) (A) (A) (A) (A) (A) (A)
                 (A) (A) (A) (A) (A) (A) (A) (A) (A) (A) (A) (A)
                 (A) (A) (A) (A) (A) (A) (A) (A) (A) (A) (A) (A)
                 (A) (A) (A) (A) (A) (A) (A) (A) (A) (A) (A) (A)
                 (A) (A) (A) (A) (A) (A) (A) (A) (A) (A) (A) (A)
                 (A) (A) (A) (A) (A) (A) (A) (A) (A) (A) (A) (A)
                 (A) (A) (A) (A) (A) (A) (A) (A) (A) (A) (A) (A)
                 (A) (A) (A) (A) (A) (A) (A) (A) (A) (A) (A) (A)
                 (A) (A) (A) (A) (A) (A) (A) (A) (A) (A) (A) (A)
                 (A) (A) (A) (A) (A) (A) (A) (A) (A) (A) (A) (A)
                 (A) (A) (A) (A) (A) (A)
       Virtual   (A) (A) (A) (A) (A) (A) (A) (A) (A) (A) (A) (A)
                 (A) (A) (A) (A) (A) (A) (A) (A) (A) (A) (A) (A)
                 (A) (A) (A) (A) (A) (A) (A) (A) (A) (A) (A) (A)
                 (A) (A) (A) (A) (A) (A) (A) (A) (A) (A) (A) (A)
                 (A) (A) (A) (A) (A) (A) (A) (A) (A) (A) (A) (A)
                 (A) (A) (A) (A) (A) (A) (A) (A) (A) (A) (A) (A)
                 (A) (A) (A) (A) (A) (A) (A) (A) (A) (A) (A) (A)
                 (A) (A) (A) (A) (A) (A) (A) (A) (A) (A) (A) (A)
                 (A) (A) (A) (A) (A) (A) (A) (A) (A) (A) (A) (A)
                 (A) (A) (A) (A) (A) (A) (A) (A) (A) (A) (A) (A)
                 (A) (A) (A) (A) (A) (A) (A) (A) (A) (A) (A) (A)
                 (A) (A) (A) (A) (A) (A) (A) (A) (A) (A) (A) (A)
                 (A) (A) (A) (A) (A) (A) (A) (A) (A) (A) (A) (A)
                 (A) (A) (A) (A) (A) (A) (A) (A) (A) (A) (A) (A)
                 (A) (A) (A) (A) (A) (A) (A) (A) (A) (A) (A) (A)
                 (A) (A) (A) (A) (A) (A) (A) (A) (A) (A) (A) (A)
                 (A) (A) (A) (A) (A) (A) (A) (A) (A) (A) (A) (A)
                 (A) (A) (A) (A) (A) (A) (A) (A) (A) (A) (A) (A)
                 (A) (A) (A) (A) (A) (A) (A) (A) (A) (A) (A) (A)
                 (A) (A) (A) (A) (A) (A) (A) (A) (A) (A) (A) (A)
                 (A) (A) (A) (A) (A) (A) (A) (A) (A) (A) (A) (A)
                 (A) (A) (A) (A) (A) (A) (A) (A) (A) (A) (A) (A)
                 (A) (A) (A) (A) (A) (A) (A) (A) (A) (A) (A) (A)
                 (A) (A) (A) (A) (A) (A) (A) (A) (A) (A) (A) (A)
                 (A) (A) (A) (A) (A) (A) (A) (A) (A) (A) (A) (A)
                 (A) (A) (A) (A) (A) (A) (A) (A) (A) (A) (A) (A)
                 (A) (A) (A) (A) (A) (A) (A) (A) (A) (A) (A) (A)
                 (A) (A) (A) (A) (A) (A) (A) (A) (A) (A) (A) (A)
                 (A) (A) (A) (A) (A) (A) (A) (A) (A) (A) (A) (A)
                 (A) (A) (A) (A) (A) (A) (A) (A) (A) (A) (A) (A)
                 (A) (A) (A) (A) (A) (A) (A) (A) (A) (A) (A) (A)
                 (A) (A) (A) (A) (A) (A) (A) (A) (A) (A) (A) (A)
                 (A) (A) (A) (A) (A) (A) (A) (A) (A) (A) (A) (A)
                 (A) (A) (A) (A) (A) (A) (A) (A) (A) (A) (A) (A)
                 (A) (A) (A) (A) (A) (A) (A) (A) (A) (A) (A) (A)
                 (A) (A) (A) (A) (A) (A) (A) (A) (A) (A) (A) (A)
                 (A) (A) (A) (A) (A) (A) (A) (A) (A) (A) (A) (A)
                 (A) (A) (A) (A) (A) (A) (A) (A) (A) (A) (A) (A)
                 (A) (A) (A) (A) (A) (A) (A) (A) (A) (A) (A) (A)
                 (A) (A) (A) (A) (A) (A) (A) (A) (A) (A) (A) (A)
                 (A) (A) (A) (A) (A) (A) (A) (A) (A) (A) (A) (A)
                 (A) (A) (A) (A) (A) (A) (A) (A) (A) (A) (A) (A)
                 (A) (A) (A) (A) (A) (A) (A) (A) (A) (A) (A) (A)
                 (A) (A) (A) (A) (A) (A) (A) (A) (A) (A) (A) (A)
                 (A) (A) (A) (A) (A) (A) (A) (A) (A) (A) (A) (A)
                 (A) (A) (A) (A) (A) (A) (A) (A) (A) (A) (A) (A)
                 (A) (A) (A) (A) (A) (A) (A) (A) (A) (A) (A) (A)
                 (A) (A) (A) (A) (A) (A) (A) (A) (A) (A) (A) (A)
                 (A) (A) (A) (A) (A) (A) (A) (A) (A) (A) (A) (A)
                 (A) (A) (A) (A) (A) (A) (A) (A) (A) (A) (A) (A)
                 (A) (A) (A) (A) (A) (A) (A) (A) (A) (A) (A) (A)
                 (A) (A) (A) (A) (A) (A) (A) (A) (A) (A) (A) (A)
                 (A) (A) (A) (A) (A) (A) (A) (A) (A) (A) (A) (A)
                 (A) (A) (A) (A) (A) (A) (A) (A) (A) (A) (A) (A)
                 (A) (A) (A) (A) (A) (A) (A) (A) (A) (A) (A) (A)
                 (A) (A) (A) (A) (A) (A) (A) (A) (A) (A) (A) (A)
                 (A) (A) (A) (A) (A) (A) (A) (A) (A) (A) (A) (A)
                 (A) (A) (A) (A) (A) (A) (A) (A) (A) (A) (A) (A)
                 (A) (A) (A) (A) (A) (A) (A) (A) (A) (A) (A) (A)
                 (A) (A) (A) (A) (A) (A) (A) (A) (A) (A) (A) (A)
                 (A) (A) (A) (A) (A) (A) (A) (A) (A) (A) (A) (A)
                 (A) (A) (A) (A) (A) (A) (A) (A) (A) (A) (A) (A)
                 (A) (A) (A) (A) (A) (A) (A) (A) (A) (A) (A) (A)
                 (A) (A) (A) (A) (A) (A) (A) (A) (A) (A) (A) (A)
                 (A) (A) (A) (A) (A) (A) (A) (A) (A) (A) (A) (A)
                 (A) (A) (A) (A) (A) (A) (A) (A) (A) (A) (A) (A)
                 (A) (A) (A) (A) (A) (A) (A) (A) (A) (A) (A) (A)
                 (A) (A) (A) (A) (A) (A) (A) (A) (A) (A) (A) (A)
                 (A) (A) (A) (A) (A) (A) (A) (A) (A) (A) (A) (A)
                 (A) (A) (A) (A) (A) (A) (A) (A) (A) (A) (A) (A)
                 (A) (A) (A) (A) (A) (A) (A) (A) (A) (A) (A) (A)
                 (A) (A) (A) (A) (A) (A) (A) (A) (A) (A) (A) (A)
                 (A) (A) (A) (A) (A) (A) (A) (A) (A) (A) (A) (A)
                 (A) (A) (A) (A) (A) (A) (A) (A) (A) (A) (A) (A)
                 (A) (A) (A) (A) (A) (A) (A) (A) (A) (A) (A) (A)
                 (A) (A) (A) (A) (A) (A) (A) (A) (A) (A) (A) (A)
                 (A) (A) (A) (A) (A) (A) (A) (A) (A) (A) (A) (A)
                 (A) (A) (A) (A) (A) (A) (A) (A) (A) (A) (A) (A)
                 (A) (A) (A) (A) (A) (A) (A) (A) (A) (A) (A) (A)
                 (A) (A) (A) (A) (A) (A) (A) (A) (A) (A) (A) (A)
                 (A) (A) (A) (A) (A) (A) (A) (A) (A) (A) (A) (A)
                 (A) (A) (A) (A) (A) (A) (A) (A) (A) (A) (A) (A)
                 (A) (A) (A) (A) (A) (A) (A) (A) (A) (A) (A) (A)
                 (A) (A) (A) (A) (A) (A) (A) (A) (A) (A) (A) (A)
                 (A) (A) (A) (A) (A) (A) (A) (A) (A) (A) (A) (A)
                 (A) (A) (A) (A) (A) (A) (A) (A) (A) (A) (A) (A)
                 (A) (A) (A) (A) (A) (A) (A) (A) (A) (A) (A) (A)
                 (A) (A) (A) (A) (A) (A) (A) (A) (A) (A) (A) (A)
                 (A) (A) (A) (A) (A) (A) (A) (A) (A) (A) (A) (A)
                 (A) (A) (A) (A) (A) (A) (A) (A) (A) (A) (A) (A)
                 (A) (A) (A) (A) (A) (A) (A) (A) (A) (A) (A) (A)
                 (A) (A) (A) (A) (A) (A) (A) (A) (A) (A) (A) (A)
                 (A) (A) (A) (A) (A) (A) (A) (A) (A) (A) (A) (A)
                 (A) (A) (A) (A) (A) (A) (A) (A) (A) (A) (A) (A)
                 (A) (A) (A) (A) (A) (A) (A) (A) (A) (A) (A) (A)
                 (A) (A) (A) (A) (A) (A) (A) (A) (A) (A) (A) (A)
                 (A) (A) (A) (A) (A) (A) (A) (A) (A) (A) (A) (A)
                 (A) (A) (A) (A) (A) (A) (A) (A) (A) (A) (A) (A)
                 (A) (A) (A) (A) (A) (A) (A) (A) (A) (A) (A) (A)
                 (A) (A) (A) (A) (A) (A) (A) (A) (A) (A) (A) (A)
                 (A) (A) (A) (A) (A) (A) (A) (A) (A) (A) (A) (A)
                 (A) (A) (A) (A) (A) (A) (A) (A) (A) (A) (A) (A)
                 (A) (A) (A) (A) (A) (A) (A) (A) (A) (A) (A) (A)
                 (A) (A) (A) (A) (A) (A) (A) (A) (A) (A) (A) (A)
                 (A) (A) (A) (A) (A) (A) (A) (A) (A) (A) (A) (A)
                 (A) (A) (A) (A) (A) (A) (A) (A) (A) (A) (A) (A)
                 (A) (A) (A) (A) (A) (A) (A) (A) (A) (A) (A) (A)
                 (A) (A) (A) (A) (A) (A) (A) (A) (A) (A) (A) (A)
                 (A) (A) (A) (A) (A) (A) (A) (A) (A) (A) (A) (A)
                 (A) (A) (A) (A) (A) (A) (A) (A) (A) (A) (A) (A)
                 (A) (A) (A) (A) (A) (A) (A) (A) (A) (A) (A) (A)
                 (A) (A) (A) (A) (A) (A) (A) (A) (A) (A) (A) (A)
                 (A) (A) (A) (A) (A) (A) (A) (A) (A) (A) (A) (A)
                 (A) (A) (A) (A) (A) (A) (A) (A) (A) (A) (A) (A)
                 (A) (A) (A) (A) (A) (A) (A) (A) (A) (A) (A) (A)
                 (A) (A) (A) (A) (A) (A) (A) (A) (A) (A) (A) (A)
                 (A) (A) (A) (A) (A) (A) (A) (A) (A) (A) (A) (A)
                 (A) (A) (A) (A) (A) (A) (A) (A) (A) (A) (A) (A)
                 (A) (A) (A) (A) (A) (A) (A) (A) (A) (A) (A) (A)
                 (A) (A) (A) (A) (A) (A) (A) (A) (A) (A) (A) (A)
                 (A) (A) (A) (A) (A) (A) (A) (A) (A) (A) (A) (A)
                 (A) (A) (A) (A) (A) (A) (A) (A) (A) (A) (A) (A)
                 (A) (A) (A) (A) (A) (A) (A) (A) (A) (A) (A) (A)
                 (A) (A) (A) (A) (A) (A) (A) (A) (A) (A) (A) (A)
                 (A) (A) (A) (A) (A) (A) (A) (A) (A) (A) (A) (A)
                 (A) (A) (A) (A) (A) (A) (A) (A) (A) (A) (A) (A)
                 (A) (A) (A) (A) (A) (A) (A) (A) (A) (A) (A) (A)
                 (A) (A) (A) (A) (A) (A) (A) (A) (A) (A) (A) (A)
                 (A) (A) (A) (A) (A) (A) (A) (A) (A) (A) (A) (A)
                 (A) (A) (A) (A) (A) (A) (A) (A) (A) (A) (A) (A)
                 (A) (A) (A) (A) (A) (A) (A) (A) (A) (A) (A) (A)
                 (A) (A) (A) (A) (A) (A) (A) (A) (A) (A) (A) (A)
                 (A) (A) (A) (A) (A) (A) (A) (A) (A) (A) (A) (A)
                 (A) (A) (A) (A) (A) (A) (A) (A) (A) (A) (A) (A)
                 (A) (A) (A) (A) (A) (A) (A) (A) (A) (A) (A) (A)
                 (A) (A) (A) (A) (A) (A) (A) (A) (A) (A) (A) (A)
                 (A) (A) (A) (A) (A) (A) (A) (A) (A) (A) (A) (A)
                 (A) (A) (A) (A) (A) (A) (A) (A) (A) (A) (A) (A)
[...]
 Alpha virt. eigenvalues --    3.21745   3.21953   3.22421   3.22614   3.22896
 Alpha virt. eigenvalues --    3.23469   3.23622   3.23814   3.23872   3.24035
 Alpha virt. eigenvalues --    3.24667   3.24839   3.25173   3.25351   3.25532
 Alpha virt. eigenvalues --    3.25949   3.25998   3.26464   3.26869   3.26992
 Alpha virt. eigenvalues --    3.27399   3.27598   3.27742   3.28438   3.28465
 Alpha virt. eigenvalues --    3.28616   3.28959   3.29586   3.29856   3.30151
 Alpha virt. eigenvalues --    3.30467   3.30717   3.31022   3.31194   3.31399
 Alpha virt. eigenvalues --    3.31835   3.32012   3.32144   3.32762   3.32968
 Alpha virt. eigenvalues --    3.33370   3.33553   3.33829   3.33922   3.34491
 Alpha virt. eigenvalues --    3.34857   3.34877   3.35530   3.35645   3.35893
 Alpha virt. eigenvalues --    3.36218   3.36578   3.36733   3.36886   3.37059
 Alpha virt. eigenvalues --    3.37309   3.37623   3.37935   3.38262   3.38396
 Alpha virt. eigenvalues --    3.38709   3.38775   3.38950   3.39507   3.39669
 Alpha virt. eigenvalues --    3.39767   3.40063   3.40138   3.40597   3.40641
 Alpha virt. eigenvalues --    3.41002   3.41166   3.41568   3.41659   3.41891
 Alpha virt. eigenvalues --    3.42135   3.42330   3.42672   3.42858   3.43195
 Alpha virt. eigenvalues --    3.43336   3.43551   3.43777   3.43922   3.44494
 Alpha virt. eigenvalues --    3.44712   3.44839   3.45392   3.45470   3.46008
 Alpha virt. eigenvalues --    3.46046   3.46542   3.46649   3.46815   3.47139
 Alpha virt. eigenvalues --    3.47653   3.47883   3.47969   3.48426   3.48709
 Alpha virt. eigenvalues --    3.49021   3.49413   3.49703   3.49825   3.50522
 Alpha virt. eigenvalues --    3.50728   3.51092   3.51359   3.51553   3.51850
 Alpha virt. eigenvalues --    3.51987   3.52235   3.52998   3.53135   3.53416
 Alpha virt. eigenvalues --    3.53862   3.54084   3.54380   3.54565   3.54680
 Alpha virt. eigenvalues --    3.55183   3.55347   3.55614   3.55817   3.56114
 Alpha virt. eigenvalues --    3.56211   3.56483   3.57060   3.57333   3.57553
 Alpha virt. eigenvalues --    3.57868   3.58276   3.58529   3.58666   3.58857
 Alpha virt. eigenvalues --    3.59295   3.59625   3.60004   3.60586   3.60745
 Alpha virt. eigenvalues --    3.61145   3.61229   3.61936   3.62153   3.62508
 Alpha virt. eigenvalues --    3.62670   3.63256   3.63941   3.64096   3.64657
 Alpha virt. eigenvalues --    3.65187   3.65369   3.65663   3.66240   3.66618
 Alpha virt. eigenvalues --    3.66784   3.66943   3.67195   3.67978   3.68190
 Alpha virt. eigenvalues --    3.68472   3.68754   3.69041   3.69468   3.69801
 Alpha virt. eigenvalues --    3.69987   3.70364   3.70805   3.70961   3.71299
 Alpha virt. eigenvalues --    3.71465   3.71934   3.72245   3.73052   3.73106
 Alpha virt. eigenvalues --    3.73422   3.73820   3.74562   3.74796   3.75315
 Alpha virt. eigenvalues --    3.75407   3.75599   3.75870   3.76615   3.76820
 Alpha virt. eigenvalues --    3.76990   3.77371   3.77549   3.77744   3.78114
 Alpha virt. eigenvalues --    3.78301   3.78660   3.79252   3.79708   3.80212
 Alpha virt. eigenvalues --    3.80307   3.80902   3.81340   3.81637   3.81814
 Alpha virt. eigenvalues --    3.81949   3.82072   3.83405   3.83475   3.83987
 Alpha virt. eigenvalues --    3.84038   3.84931   3.85143   3.85796   3.85954
 Alpha virt. eigenvalues --    3.86122   3.86665   3.86992   3.87456   3.88189
 Alpha virt. eigenvalues --    3.88552   3.88609   3.88851   3.89157   3.89827
 Alpha virt. eigenvalues --    3.90431   3.91206   3.91579   3.92071   3.92881
 Alpha virt. eigenvalues --    3.93055   3.93758   3.94074   3.94837   3.95672
 Alpha virt. eigenvalues --    3.96160   3.96955   3.96964   3.97072   3.97837
 Alpha virt. eigenvalues --    3.98100   3.98184   3.98527   3.99615   4.00006
 Alpha virt. eigenvalues --    4.00565   4.00961   4.02432   4.02831   4.03948
 Alpha virt. eigenvalues --    4.04823   4.05441   4.05840   4.06694   4.06861
 Alpha virt. eigenvalues --    4.07582   4.09198   4.09740   4.10225   4.11036
 Alpha virt. eigenvalues --    4.12013   4.12372   4.12915   4.13947   4.14271
 Alpha virt. eigenvalues --    4.14516   4.15260   4.15424   4.15560   4.16147
 Alpha virt. eigenvalues --    4.16539   4.16702   4.17066   4.17911   4.18339
 Alpha virt. eigenvalues --    4.18564   4.19712   4.20090   4.20525   4.21096
 Alpha virt. eigenvalues --    4.21337   4.22674   4.22795   4.23242   4.23632
 Alpha virt. eigenvalues --    4.23678   4.24072   4.24389   4.24781   4.24849
 Alpha virt. eigenvalues --    4.25075   4.25225   4.25863   4.26227   4.26786
 Alpha virt. eigenvalues --    4.27158   4.27370   4.27574   4.28073   4.28468
 Alpha virt. eigenvalues --    4.28927   4.29590   4.29920   4.30114   4.30377
 Alpha virt. eigenvalues --    4.30876   4.31103   4.32012   4.32126   4.32289
 Alpha virt. eigenvalues --    4.32390   4.32772   4.33066   4.33518   4.34172
 Alpha virt. eigenvalues --    4.34424   4.35249   4.35436   4.35692   4.36114
 Alpha virt. eigenvalues --    4.36342   4.37396   4.37929   4.38413   4.39009
 Alpha virt. eigenvalues --    4.39231   4.39754   4.39951   4.40319   4.40794
 Alpha virt. eigenvalues --    4.41209   4.41352   4.42216   4.42322   4.42699
 Alpha virt. eigenvalues --    4.43175   4.43552   4.44361   4.44715   4.44765
 Alpha virt. eigenvalues --    4.45398   4.46543   4.47112   4.47254   4.47795
 Alpha virt. eigenvalues --    4.48136   4.48688   4.49338   4.49779   4.49966
 Alpha virt. eigenvalues --    4.50173   4.51175   4.51464   4.52592   4.53366
 Alpha virt. eigenvalues --    4.53476   4.53817   4.53950   4.55109   4.56320
 Alpha virt. eigenvalues --    4.56645   4.57293   4.57542   4.58106   4.58832
 Alpha virt. eigenvalues --    4.59102   4.59549   4.60718   4.62119   4.62889
 Alpha virt. eigenvalues --    4.63167   4.63255   4.63981   4.64918   4.67139
 Alpha virt. eigenvalues --    4.67671   4.68009   4.68563   4.68639   4.69919
 Alpha virt. eigenvalues --    4.70568   4.71297   4.71407   4.71978   4.72867
 Alpha virt. eigenvalues --    4.73527   4.73850   4.74349   4.76499   4.77195
 Alpha virt. eigenvalues --    4.78936   4.80195   4.80504   4.80933   4.81563
 Alpha virt. eigenvalues --    4.82290   4.83173   4.83860   4.84417   4.85148
 Alpha virt. eigenvalues --    4.85265   4.85845   4.86512   4.87366   4.88985
 Alpha virt. eigenvalues --    4.89621   4.89993   4.91367   4.94122   4.94905
 Alpha virt. eigenvalues --    4.97028   4.97566   4.98410   4.99351   5.00021
 Alpha virt. eigenvalues --    5.00583   5.01026   5.01523   5.03358   5.06674
 Alpha virt. eigenvalues --    5.08505   5.10538   5.11087   5.11423   5.12641
 Alpha virt. eigenvalues --    5.14475   5.15718   5.16161   5.17123   5.17552
 Alpha virt. eigenvalues --    5.17827   5.19593   5.24579   5.24912   5.25416
 Alpha virt. eigenvalues --    5.25990   5.26730   5.28836   5.31004   5.31363
 Alpha virt. eigenvalues --    5.31910   5.32286   5.33114   5.33921   5.34212
 Alpha virt. eigenvalues --    5.34436   5.36102   5.37539   5.38307   5.39224
 Alpha virt. eigenvalues --    5.39536   5.40408   5.40949   5.41400   5.42148
 Alpha virt. eigenvalues --    5.42852   5.43253   5.43615   5.45451   5.47443
 Alpha virt. eigenvalues --    5.49778   5.52545   5.52889   5.54463   5.55270
 Alpha virt. eigenvalues --    5.56623   5.59003   5.61341   5.62757   5.63329
 Alpha virt. eigenvalues --    5.63942   5.64765   5.65371   5.67072   5.68407
 Alpha virt. eigenvalues --    5.69355   5.72505   5.73020   5.73141   5.73898
 Alpha virt. eigenvalues --    5.74176   5.74728   5.78253   5.78829   5.79154
 Alpha virt. eigenvalues --    5.80983   5.87533   5.88196   5.91504   6.02335
 Alpha virt. eigenvalues --    6.05964   6.09347   6.15412   6.44192   6.48282
 Alpha virt. eigenvalues --    6.48484   6.50997   6.57912   6.65233   6.74507
 Alpha virt. eigenvalues --    6.81364   6.89591   6.89824   6.90444   6.93216
 Alpha virt. eigenvalues --    6.93828   6.94526   6.94618   6.94928   6.95331
 Alpha virt. eigenvalues --    6.95600   6.95985   6.96569   6.96988   7.00380
 Alpha virt. eigenvalues --    7.00922   7.04278   7.05739   7.06759   7.08435
 Alpha virt. eigenvalues --    7.13644   7.14344   7.18157   7.23966   7.28020
 Alpha virt. eigenvalues --    7.28466   7.29334   7.36239   7.38629   7.41702
 Alpha virt. eigenvalues --    7.48708   7.49245   7.52992   7.56712   7.62294
 Alpha virt. eigenvalues --    7.74048   7.76323   8.01076   8.10016   8.18001
 Alpha virt. eigenvalues --    8.21460   8.39118   8.42635   8.45136   8.49401
 Alpha virt. eigenvalues --    8.54786   8.64742   8.65083   8.78096   8.79835
 Alpha virt. eigenvalues --    8.83410   8.88138   8.90369   8.94327   8.99942
 Alpha virt. eigenvalues --    9.02456   9.09978   9.11515   9.17186   9.18757
 Alpha virt. eigenvalues --    9.42410   9.50653   9.61139   9.85825  10.91907
 Alpha virt. eigenvalues --   10.98404  11.38764  16.39311  22.15491  22.40281
 Alpha virt. eigenvalues --   22.46953  22.48219  22.49679  22.50131  22.51111
 Alpha virt. eigenvalues --   22.51480  22.51754  22.54143  22.61491  22.63051
 Alpha virt. eigenvalues --   22.65872  22.67425  22.69959  22.73551  22.74007
 Alpha virt. eigenvalues --   22.84739  22.92527  22.98118  22.98658  22.98963
 Alpha virt. eigenvalues --   22.99791  23.03409  23.05661  23.06774  23.07906
 Alpha virt. eigenvalues --   23.11373  23.12440  23.13110  23.14600  23.15451
 Alpha virt. eigenvalues --   23.15980  23.16563  23.18579  23.19819  23.25233
 Alpha virt. eigenvalues --   23.47823  23.59389  23.59826  23.63041  23.81666
 Alpha virt. eigenvalues --   25.70911  32.77205  32.98268  43.82862  44.08651
 Alpha virt. eigenvalues --   44.35806  57.30352  57.48538  57.59303  57.70561
 Alpha virt. eigenvalues --  107.16808
          Condensed to atoms (all electrons):
 Mulliken charges:
               1
     1  Pd  -0.041422
     2  P    0.188640
     3  C   -0.103084
     4  C   -0.111617
     5  H    0.200369
     6  C   -0.366529
     7  H    0.133945
     8  C    0.412777
     9  C   -0.469574
    10  H    0.173173
    11  C    0.079951
    12  C    0.034908
    13  C    0.288115
    14  C    0.139573
    15  C    0.201688
    16  C    0.185272
    17  C    0.027447
    18  N   -0.427618
    19  S    0.850116
    20  O   -0.536039
    21  O   -0.517840
    22  C   -0.177208
    23  Cl  -0.109602
    24  H    0.193502
    25  H    0.204060
    26  F   -0.205546
    27  F   -0.198576
    28  F   -0.201469
    29  F   -0.218719
    30  O   -0.303016
    31  C   -0.225315
    32  H    0.135379
    33  H    0.157374
    34  H    0.137025
    35  C   -0.292149
    36  C    0.182438
    37  C    0.181468
    38  C   -0.452126
    39  C   -0.415255
    40  C    0.244545
    41  H    0.143508
    42  H    0.137736
    43  C   -0.169113
    44  C    0.155752
    45  C    0.232409
    46  C   -0.429698
    47  C   -0.427929
    48  C    0.240332
    49  H    0.140896
    50  H    0.135706
    51  C   -0.265728
    52  C    0.284611
    53  C    0.143234
    54  C   -0.424682
    55  C   -0.388087
    56  C    0.215431
    57  H    0.137058
    58  H    0.137105
    59  C   -0.353818
    60  H    0.143632
    61  H    0.160992
    62  H    0.170992
    63  C   -0.186839
    64  H    0.180550
    65  H    0.166912
    66  H    0.198478
    67  C   -0.389908
    68  H    0.178754
    69  H    0.142733
    70  H    0.158859
    71  C   -0.298669
    72  H    0.136781
    73  H    0.141082
    74  H    0.146621
    75  C   -0.406736
    76  H    0.152446
    77  H    0.145179
    78  H    0.146511
    79  C   -0.346178
    80  H    0.163433
    81  H    0.130455
    82  H    0.156360
    83  C   -0.405918
    84  H    0.147820
    85  H    0.153478
    86  H    0.145385
    87  C   -0.358327
    88  H    0.161260
    89  H    0.143834
    90  H    0.157913
    91  C   -0.406131
    92  H    0.152479
    93  H    0.145162
    94  H    0.146821
 Sum of Mulliken charges =   0.00000
 Mulliken charges with hydrogens summed into heavy atoms:
               1
     1  Pd  -0.041422
     2  P    0.188640
     3  C   -0.103084
     4  C    0.088751
     6  C   -0.232585
     8  C    0.412777
     9  C   -0.296401
    11  C    0.079951
    12  C    0.034908
    13  C    0.288115
    14  C    0.139573
    15  C    0.201688
    16  C    0.185272
    17  C    0.027447
    18  N   -0.427618
    19  S    0.850116
    20  O   -0.536039
    21  O   -0.517840
    22  C    0.220354
    23  Cl  -0.109602
    26  F   -0.205546
    27  F   -0.198576
    28  F   -0.201469
    29  F   -0.218719
    30  O   -0.303016
    31  C    0.204463
    35  C   -0.292149
    36  C    0.182438
    37  C    0.181468
    38  C   -0.308619
    39  C   -0.277520
    40  C    0.244545
    43  C   -0.169113
    44  C    0.155752
    45  C    0.232409
    46  C   -0.288802
    47  C   -0.292223
    48  C    0.240332
    51  C   -0.265728
    52  C    0.284611
    53  C    0.143234
    54  C   -0.287624
    55  C   -0.250983
    56  C    0.215431
    59  C    0.121798
    63  C    0.359101
    67  C    0.090438
    71  C    0.125814
    75  C    0.037400
    79  C    0.104070
    83  C    0.040765
    87  C    0.104680
    91  C    0.038332
 Electronic spatial extent (au):  <R**2>=          32316.3250
 Charge=              0.0000 electrons
 Dipole moment (field-independent basis, Debye):
    X=             11.5906    Y=              3.7457    Z=              6.2611  Tot=             13.6958
 Quadrupole moment (field-independent basis, Debye-Ang):
   XX=           -327.7711   YY=           -327.1359   ZZ=           -344.6408
   XY=            -27.9650   XZ=            -10.0914   YZ=             -9.8780
 Traceless Quadrupole moment (field-independent basis, Debye-Ang):
   XX=              5.4115   YY=              6.0467   ZZ=            -11.4582
   XY=            -27.9650   XZ=            -10.0914   YZ=             -9.8780
 Octapole moment (field-independent basis, Debye-Ang**2):
  XXX=             80.4086  YYY=              1.2986  ZZZ=             87.1860  XYY=             53.9981
  XXY=            120.2405  XXZ=            -40.6379  XZZ=             31.2760  YZZ=             -5.8534
  YYZ=             18.1572  XYZ=             51.1738
 Hexadecapole moment (field-independent basis, Debye-Ang**3):
 XXXX=         -19641.2081 YYYY=         -11332.4229 ZZZZ=         -10308.0899 XXXY=           -717.4628
 XXXZ=           -183.5455 YYYX=            -17.4533 YYYZ=             99.9979 ZZZX=           -197.4913
 ZZZY=           -263.3979 XXYY=          -4820.0462 XXZZ=          -5150.2733 YYZZ=          -3555.2542
 XXYZ=            132.8695 YYXZ=           -195.9398 ZZXY=           -150.4473
 N-N= 9.366724264425D+03 E-N=-2.715431981849D+04  KE= 3.501369301089D+03
 No NMR shielding tensors so no spin-rotation constants.
 Leave Link  601 at Tue Nov 28 23:06:14 2023, MaxMem=  2147483648 cpu:        22.2
 (Enter /cluster/apps/gaussian/g09/l9999.exe)
 1\1\GINC-EU-G1-004-1\SP\RwB97XD\GenECP\C41H41Cl1F4N1O3P1Pd1S1\SROEDIGE
 R\28-Nov-2023\0\\#p sp geom=allcheck scrf(solvent=dichloromethane,smd)
  wb97xd genecp temperature=313 integral(grid=ultrafine)\\title\\0,1\Pd
 ,0,0.3362950544,-0.5875404879,-0.2321381432\P,0,2.440040821,-0.0082907
 801,0.6139216361\C,0,-0.5721687999,1.1674471449,-0.4324444074\C,0,0.04
 09802103,2.2197857527,-1.1161500818\H,0,1.0559877031,2.1117309423,-1.4
 916887577\C,0,-0.5982442103,3.4327032599,-1.3285135827\H,0,-0.10169647
 94,4.2480212356,-1.8580828309\C,0,-1.9036167691,3.6216484929,-0.864469
 0113\C,0,-2.5413547387,2.5784230256,-0.1964723174\H,0,-3.5622814309,2.
 6993047622,0.1590157352\C,0,-1.8899888325,1.3496253581,0.0297909059\C,
 0,-2.6348921633,0.2811202894,0.7287310582\C,0,-3.5162111489,0.53621327
 44,1.7820206303\C,0,-4.2502824804,-0.4807815338,2.3860375913\C,0,-4.09
 52450551,-1.7933457361,1.9511976642\C,0,-3.1908108771,-2.0805026299,0.
 9330659509\C,0,-2.4643184949,-1.0589308592,0.3131256083\N,0,-1.4838741
 882,-1.3746031042,-0.6244529774\S,0,-1.8962676422,-1.9160232803,-2.099
 7670914\O,0,-0.8071491998,-2.7497303103,-2.6006414867\O,0,-3.274721929
 9,-2.3967880387,-2.0913572788\C,0,-1.980819234,-0.4698584537,-3.199486
 349\Cl,0,-0.410537419,0.0977022984,-3.7584893844\H,0,-2.5003532228,0.3
 337554935,-2.6605124528\H,0,-2.5705919418,-0.8098890532,-4.0607623751\
 F,0,-2.9943943016,-3.3443612894,0.603447255\F,0,-4.7716760784,-2.76507
 03317,2.5408831178\F,0,-5.0785481503,-0.2060169226,3.3830994293\F,0,-3
 .6782889057,1.7679984616,2.2676034291\O,0,-2.4678621235,4.8243652058,-
 1.1079068131\C,0,-3.7705670597,5.0565847349,-0.653248364\H,0,-4.499278
 2646,4.3697475035,-1.1198674435\H,0,-4.0250008353,6.0861081984,-0.9359
 687536\H,0,-3.8479357258,4.9573038759,0.4441961955\C,0,3.5605977341,-1
 .3449429113,0.0018643859\C,0,2.9572493507,-2.5403214481,-0.4441615506\
 C,0,4.9651453414,-1.2062849448,-0.0911974347\C,0,3.7398600765,-3.54895
 87854,-1.005849061\C,0,5.7039575225,-2.2375984301,-0.6773669452\C,0,5.
 1189945439,-3.4106087327,-1.154371451\H,0,3.2502523317,-4.467861306,-1
 .3399838274\H,0,6.7896016461,-2.1221423027,-0.744585987\C,0,2.24696313
 83,-0.1214321443,2.4530525922\C,0,1.3269119193,0.781850428,3.045707145
 \C,0,2.832486281,-1.131072018,3.2641551309\C,0,1.0060152123,0.65627982
 45,4.3978606515\C,0,2.4595724975,-1.2086095946,4.6107943972\C,0,1.5454
 81073,-0.3413412824,5.2032298761\H,0,0.3005203662,1.3727217364,4.82913
 57896\H,0,2.9183191112,-1.9890859156,5.2239221853\C,0,3.2502689851,1.5
 325441883,0.0331092139\C,0,3.7762715312,2.5573246152,0.8557621535\C,0,
 3.3257674926,1.6653110728,-1.3797538087\C,0,4.2749189861,3.7136878297,
 0.2485380961\C,0,3.8428813987,2.842794686,-1.9248446711\C,0,4.30097453
 98,3.8936337672,-1.1329136841\H,0,4.6788647108,4.5000338696,0.89273235
 91\H,0,3.8862316085,2.9335250553,-3.0138703038\C,0,0.6530892323,1.9082
 579719,2.318534621\H,0,1.1192193565,2.1825715973,1.3666255733\H,0,-0.3
 89893674,1.6480894571,2.0901296896\H,0,0.6299882133,2.8050260352,2.955
 4043181\C,0,1.4826744734,-2.7811405647,-0.3478740995\H,0,1.038044742,-
 2.3629851555,0.5873306263\H,0,0.9431754392,-2.4482532097,-1.2610025537
 \H,0,1.2326543879,-3.849330341,-0.2917277126\C,0,2.917518028,0.5858836
 911,-2.3422735801\H,0,3.6711089848,-0.215324981,-2.38530329\H,0,1.9636
 483114,0.1053659918,-2.0678723242\H,0,2.8020092578,0.9991523867,-3.352
 886341\C,0,3.8541673808,-2.1458580213,2.8257511208\H,0,3.4648366163,-2
 .8518094238,2.080304201\H,0,4.745937653,-1.6839240706,2.3857675285\H,0
 ,4.1796129474,-2.730054306,3.6964135376\C,0,1.1455290537,-0.4882903351
 ,6.6400913402\H,0,0.2272528673,-1.092839975,6.7261096872\H,0,1.9261413
 592,-0.9911631294,7.228434019\H,0,0.9362176504,0.4873183686,7.10224372
 75\C,0,5.741464361,-0.0361055552,0.4427553732\H,0,5.751326727,0.809195
 8974,-0.2616034319\H,0,5.3295933392,0.341485943,1.3869904474\H,0,6.783
 6577427,-0.3331753239,0.6248302161\C,0,5.9396171426,-4.480012658,-1.80
 96512205\H,0,5.5386863786,-5.4818444849,-1.5986424292\H,0,5.9364346988
 ,-4.3526864256,-2.9050010415\H,0,6.9869787476,-4.4473953347,-1.4777884
 038\C,0,3.9113435801,2.4844561316,2.351890581\H,0,2.9891796266,2.78639
 05365,2.868252608\H,0,4.153640028,1.4783808699,2.7143206412\H,0,4.7066
 143829,3.1671082531,2.6809271145\C,0,4.7983281185,5.1692994985,-1.7430
 565753\H,0,3.9687930552,5.8841077443,-1.874217359\H,0,5.5508736427,5.6
 559928127,-1.1061945216\H,0,5.2409632031,4.9976615725,-2.7346912139\\V
 ersion=ES64L-G09RevD.01\State=1-A\HF=-3594.769228\RMSD=2.213e-09\Dipol
 e=4.7116306,2.1802208,1.4426445\Quadrupole=3.3716823,-1.3162151,-2.055
 4671,-22.8430414,-0.2429756,-8.1523936\PG=C01 [X(C41H41Cl1F4N1O3P1Pd1S
 1)]\\@


    WHAT WE HAVE LEARNED
 IS LIKE A HANDFUL OF EARTH;
  WHAT WE HAVE YET TO LEARN
   IS LIKE THE WHOLE WORLD.

         -- AVVAYIAR
 Job cpu time:       1 days 20 hours  8 minutes 23.5 seconds.
 File lengths (MBytes):  RWF=   2562 Int=      0 D2E=      0 Chk=    158 Scr=      1
 Normal termination of Gaussian 09 at Tue Nov 28 23:06:15 2023.
