 Entering Gaussian System, Link 0=g09
 Input=ts_biphep-v1-released-sp.com
 Output=ts_biphep-v1-released-sp.log
 Initial command:
 /cluster/apps/gaussian/g09/l1.exe "/cluster/scratch/sroediger/michael/ts/sp/Gau-71840.inp" -scrdir="/cluster/scratch/sroediger/michael/ts/sp/"
 Entering Link 1 = /cluster/apps/gaussian/g09/l1.exe PID=     71847.
  
 Copyright (c) 1988,1990,1992,1993,1995,1998,2003,2009,2013,
            Gaussian, Inc.  All Rights Reserved.
  
 This is part of the Gaussian(R) 09 program.  It is based on
 the Gaussian(R) 03 system (copyright 2003, Gaussian, Inc.),
 the Gaussian(R) 98 system (copyright 1998, Gaussian, Inc.),
 the Gaussian(R) 94 system (copyright 1995, Gaussian, Inc.),
 the Gaussian 92(TM) system (copyright 1992, Gaussian, Inc.),
 the Gaussian 90(TM) system (copyright 1990, Gaussian, Inc.),
 the Gaussian 88(TM) system (copyright 1988, Gaussian, Inc.),
 the Gaussian 86(TM) system (copyright 1986, Carnegie Mellon
 University), and the Gaussian 82(TM) system (copyright 1983,
 Carnegie Mellon University). Gaussian is a federally registered
 trademark of Gaussian, Inc.
  
 This software contains proprietary and confidential information,
 including trade secrets, belonging to Gaussian, Inc.
  
 This software is provided under written license and may be
 used, copied, transmitted, or stored only in accord with that
 written license.
  
 The following legend is applicable only to US Government
 contracts under FAR:
  
                    RESTRICTED RIGHTS LEGEND
  
 Use, reproduction and disclosure by the US Government is
 subject to restrictions as set forth in subparagraphs (a)
 and (c) of the Commercial Computer Software - Restricted
 Rights clause in FAR 52.227-19.
  
 Gaussian, Inc.
 340 Quinnipiac St., Bldg. 40, Wallingford CT 06492
  
  
 ---------------------------------------------------------------
 Warning -- This program may not be used in any manner that
 competes with the business of Gaussian, Inc. or will provide
 assistance to any competitor of Gaussian, Inc.  The licensee
 of this program is prohibited from giving any competitor of
 Gaussian, Inc. access to this program.  By using this program,
 the user acknowledges that Gaussian, Inc. is engaged in the
 business of creating and licensing software in the field of
 computational chemistry and represents and warrants to the
 licensee that it is not a competitor of Gaussian, Inc. and that
 it will not use this program in any manner prohibited above.
 ---------------------------------------------------------------
  

 Cite this work as:
 Gaussian 09, Revision D.01,
 M. J. Frisch, G. W. Trucks, H. B. Schlegel, G. E. Scuseria, 
 M. A. Robb, J. R. Cheeseman, G. Scalmani, V. Barone, B. Mennucci, 
 G. A. Petersson, H. Nakatsuji, M. Caricato, X. Li, H. P. Hratchian, 
 A. F. Izmaylov, J. Bloino, G. Zheng, J. L. Sonnenberg, M. Hada, 
 M. Ehara, K. Toyota, R. Fukuda, J. Hasegawa, M. Ishida, T. Nakajima, 
 Y. Honda, O. Kitao, H. Nakai, T. Vreven, J. A. Montgomery, Jr., 
 J. E. Peralta, F. Ogliaro, M. Bearpark, J. J. Heyd, E. Brothers, 
 K. N. Kudin, V. N. Staroverov, T. Keith, R. Kobayashi, J. Normand, 
 K. Raghavachari, A. Rendell, J. C. Burant, S. S. Iyengar, J. Tomasi, 
 M. Cossi, N. Rega, J. M. Millam, M. Klene, J. E. Knox, J. B. Cross, 
 V. Bakken, C. Adamo, J. Jaramillo, R. Gomperts, R. E. Stratmann, 
 O. Yazyev, A. J. Austin, R. Cammi, C. Pomelli, J. W. Ochterski, 
 R. L. Martin, K. Morokuma, V. G. Zakrzewski, G. A. Voth, 
 P. Salvador, J. J. Dannenberg, S. Dapprich, A. D. Daniels, 
 O. Farkas, J. B. Foresman, J. V. Ortiz, J. Cioslowski, 
 and D. J. Fox, Gaussian, Inc., Wallingford CT, 2013.
 
 ******************************************
 Gaussian 09:  ES64L-G09RevD.01 24-Apr-2013
                 9-Apr-2024 
 ******************************************
 %nprocshared=8
 Will use up to    8 processors via shared memory.
 %mem=16GB
 %oldchk=ts_biphep-v1-released.chk
 %chk=ts_biphep-v1-released-sp.chk
 Copying data from "ts_biphep-v1-released.chk" to current chk file "ts_biphep-v1-released-sp.chk".
 ----------------------------------------------------------------------
 #p sp geom=allcheck scrf(solvent=dichloromethane,smd) wb97xd genecp te
 mperature=313 integral(grid=ultrafine)
 ----------------------------------------------------------------------
 1/29=7,38=1,112=313000/1;
 2/12=2,40=1/2;
 3/5=7,11=2,14=-4,16=1,17=8,25=1,30=1,70=32201,72=9,74=-58,75=-5/1,2,3;
 4//1;
 5/5=2,38=5,53=9/2;
 6/7=2,8=2,9=2,10=2,28=1/1;
 99/5=1,9=1/99;
 Leave Link    1 at Tue Apr  9 15:45:46 2024, MaxMem=  2147483648 cpu:         2.3
 (Enter /cluster/apps/gaussian/g09/l101.exe)
 Structure from the checkpoint file:  "ts_biphep-v1-released-sp.chk"
 -----
 title
 -----
 Charge =  0 Multiplicity = 1
 Redundant internal coordinates found in file.
 C,0,1.9497777127,0.1255685907,-0.9612018711
 C,0,2.3195332876,-0.261983406,-2.2701352114
 H,0,1.6852408652,-0.0054993975,-3.1211135568
 C,0,3.4455423013,-1.0485758656,-2.4444330253
 H,0,3.7038204796,-1.4342308512,-3.432511152
 C,0,4.2664291031,-1.4155601186,-1.3606080622
 C,0,4.0075354452,-0.8943817218,-0.0957219023
 H,0,4.6782705149,-1.0679379565,0.7446770997
 C,0,2.8818036669,-0.0784165797,0.0939752396
 C,0,2.5883593023,0.7798050799,1.2165097825
 C,0,2.9866451133,0.6748875034,2.5481905608
 C,0,2.4815342084,1.5484878675,3.5018835719
 C,0,1.5829489051,2.5541781356,3.1306729984
 C,0,1.1867737514,2.6959918403,1.8029301032
 C,0,1.7043031455,1.8277423025,0.8392961765
 N,0,1.2980251998,1.7645430068,-0.5028381547
 S,0,1.5859961116,3.0216177741,-1.5681328581
 O,0,0.9308141476,2.6366212491,-2.8101234351
 O,0,1.3266186456,4.3065687917,-0.9426172223
 C,0,3.376924892,2.8856284461,-1.7856520098
 Cl,0,3.9728108768,4.1472391873,-2.856044671
 H,0,3.590026669,1.8933881264,-2.2046880727
 H,0,3.8247521266,2.9941126818,-0.7884916548
 F,0,0.2571872364,3.5890714941,1.5177965646
 F,0,1.0561748467,3.3311623978,4.0649228752
 F,0,2.7925446744,1.394128876,4.7814646901
 F,0,3.7805632858,-0.3154985001,2.9465642754
 O,0,5.2915950037,-2.2548880374,-1.6514348085
 C,0,6.1326105802,-2.6484388967,-0.6093005039
 H,0,5.5761170836,-3.1606726966,0.1974095988
 H,0,6.6754019611,-1.7930646321,-0.167012054
 H,0,6.8647860654,-3.3466054018,-1.0355996701
 P,0,-2.3562671486,0.9061435395,-0.418454918
 C,0,-3.75847967,0.2690854368,-1.4072734055
 C,0,-5.0927895456,0.5208475143,-1.0680021871
 C,0,-6.1224028394,0.0116883742,-1.8530069394
 C,0,-5.8286491641,-0.7514122863,-2.9842048548
 C,0,-4.5025237918,-0.9973830181,-3.3323235682
 C,0,-3.4707374778,-0.4834538578,-2.5489381941
 H,0,-2.4256882436,-0.6711219917,-2.8104011676
 H,0,-4.2680497389,-1.5929093248,-4.2175415845
 H,0,-6.6387655238,-1.1524684427,-3.5981042514
 H,0,-7.1619669677,0.2112248765,-1.5818575757
 H,0,-5.3300440563,1.1148694108,-0.1831434411
 C,0,-2.5850089074,0.2289554564,1.2707328633
 C,0,-2.2136728782,1.0302518938,2.362489059
 C,0,-2.2293423752,0.5305901565,3.6601084185
 C,0,-2.6251724593,-0.7853722975,3.8911058649
 C,0,-2.9602941067,-1.5984712648,2.8145818444
 C,0,-2.9169272516,-1.1242737426,1.4958413515
 C,0,-3.1957816392,-2.1143955175,0.4118288229
 C,0,-4.506232112,-2.572090883,0.2443192629
 C,0,-4.8191341722,-3.5455187256,-0.6997878034
 C,0,-3.8058348491,-4.1060254311,-1.471480369
 C,0,-2.4915242941,-3.6768882288,-1.3072477273
 C,0,-2.1701534919,-2.6750034409,-0.3848591389
 P,0,-0.4649509956,-2.0091519959,-0.2349527235
 C,0,0.5883335139,-3.0665817241,-1.2816418751
 C,0,1.6675739553,-3.7930934436,-0.7677505164
 C,0,2.539754051,-4.4581926483,-1.628161173
 C,0,2.3397073204,-4.4146861056,-3.0053691806
 C,0,1.2721318191,-3.6835329336,-3.5267750059
 C,0,0.415285528,-2.9969945841,-2.6728028042
 H,0,-0.388946423,-2.3846125937,-3.090438269
 H,0,1.120167474,-3.6274576064,-4.6072649674
 H,0,3.0270259194,-4.9357863644,-3.6756155862
 H,0,3.3883249401,-5.0087291861,-1.2159225971
 H,0,1.8398796338,-3.8243639606,0.309554451
 C,0,-0.0388442963,-2.4512913379,1.4854747194
 C,0,0.4491385546,-1.4643149385,2.3426307488
 C,0,0.7643282362,-1.7706566696,3.6652114659
 C,0,0.5743688278,-3.0657572668,4.1403142076
 C,0,0.0648643448,-4.0538280551,3.2941593279
 C,0,-0.2402520606,-3.7506294243,1.9705380991
 H,0,-0.6451474119,-4.5225789314,1.3104901863
 C,0,-1.9559189652,3.5464158774,-1.0691916957
 C,0,-2.1551093136,4.9245619854,-1.0164136395
 C,0,-3.1182327349,5.4557002022,-0.1631046296
 C,0,-3.8836961568,4.6073337139,0.639586647
 C,0,-3.6825299234,3.2312224109,0.5938032131
 C,0,-2.7123889296,2.6903923691,-0.2625550923
 H,0,-4.2669606472,2.5791137072,1.2473449276
 H,0,-4.6366878145,5.0228146163,1.3137554254
 H,0,-3.269111877,6.5367672057,-0.1125126534
 H,0,-1.5319621803,5.5776407306,-1.6303836024
 H,0,-1.196378357,3.1342361018,-1.7370502036
 H,0,-0.0944354123,-5.067430653,3.670095968
 H,0,0.8174805216,-3.3085114531,5.177603388
 H,0,1.1587326654,-0.9927824795,4.3230322119
 H,0,0.5523678498,-0.4447445683,1.9686034793
 H,0,-1.7008025437,-4.1332533927,-1.9050769344
 H,0,-4.034078625,-4.8841837272,-2.2035085646
 H,0,-5.8548742515,-3.8679786135,-0.8267166577
 H,0,-5.2939505873,-2.1342831666,0.8614787845
 H,0,-3.2253127969,-2.6449182038,2.9821861275
 H,0,-2.6464333315,-1.188435468,4.9058032055
 H,0,-1.9278571474,1.1747280996,4.4895324841
 H,0,-1.8972263026,2.0612494417,2.1890302771
 Pd,0,-0.099894871,0.2118844934,-0.7407796043
 Recover connectivity data from disk.
 NAtoms=     99 NQM=       99 NQMF=       0 NMMI=      0 NMMIF=      0
                NMic=       0 NMicF=      0.
                    Isotopes and Nuclear Properties:
 (Nuclear quadrupole moments (NQMom) in fm**2, nuclear magnetic moments (NMagM)
  in nuclear magnetons)

  Atom         1           2           3           4           5           6           7           8           9          10
 IAtWgt=          12          12           1          12           1          12          12           1          12          12
 AtmWgt=  12.0000000  12.0000000   1.0078250  12.0000000   1.0078250  12.0000000  12.0000000   1.0078250  12.0000000  12.0000000
 NucSpn=           0           0           1           0           1           0           0           1           0           0
 AtZEff=  -3.6000000  -3.6000000  -1.0000000  -3.6000000  -1.0000000  -3.6000000  -3.6000000  -1.0000000  -3.6000000  -3.6000000
 NQMom=    0.0000000   0.0000000   0.0000000   0.0000000   0.0000000   0.0000000   0.0000000   0.0000000   0.0000000   0.0000000
 NMagM=    0.0000000   0.0000000   2.7928460   0.0000000   2.7928460   0.0000000   0.0000000   2.7928460   0.0000000   0.0000000
 AtZNuc=   6.0000000   6.0000000   1.0000000   6.0000000   1.0000000   6.0000000   6.0000000   1.0000000   6.0000000   6.0000000

  Atom        11          12          13          14          15          16          17          18          19          20
 IAtWgt=          12          12          12          12          12          14          32          16          16          12
 AtmWgt=  12.0000000  12.0000000  12.0000000  12.0000000  12.0000000  14.0030740  31.9720718  15.9949146  15.9949146  12.0000000
 NucSpn=           0           0           0           0           0           2           0           0           0           0
 AtZEff=  -3.6000000  -3.6000000  -3.6000000  -3.6000000  -3.6000000  -4.5500000 -13.6000000  -5.6000000  -5.6000000  -3.6000000
 NQMom=    0.0000000   0.0000000   0.0000000   0.0000000   0.0000000   2.0440000   0.0000000   0.0000000   0.0000000   0.0000000
 NMagM=    0.0000000   0.0000000   0.0000000   0.0000000   0.0000000   0.4037610   0.0000000   0.0000000   0.0000000   0.0000000
 AtZNuc=   6.0000000   6.0000000   6.0000000   6.0000000   6.0000000   7.0000000  16.0000000   8.0000000   8.0000000   6.0000000

  Atom        21          22          23          24          25          26          27          28          29          30
 IAtWgt=          35           1           1          19          19          19          19          16          12           1
 AtmWgt=  34.9688527   1.0078250   1.0078250  18.9984033  18.9984033  18.9984033  18.9984033  15.9949146  12.0000000   1.0078250
 NucSpn=           3           1           1           1           1           1           1           0           0           1
 AtZEff= -14.2400000  -1.0000000  -1.0000000  -6.7500000  -6.7500000  -6.7500000  -6.7500000  -5.6000000  -3.6000000  -1.0000000
 NQMom=   -8.1650000   0.0000000   0.0000000   0.0000000   0.0000000   0.0000000   0.0000000   0.0000000   0.0000000   0.0000000
 NMagM=    0.8218740   2.7928460   2.7928460   2.6288670   2.6288670   2.6288670   2.6288670   0.0000000   0.0000000   2.7928460
 AtZNuc=  17.0000000   1.0000000   1.0000000   9.0000000   9.0000000   9.0000000   9.0000000   8.0000000   6.0000000   1.0000000

  Atom        31          32          33          34          35          36          37          38          39          40
 IAtWgt=           1           1          31          12          12          12          12          12          12           1
 AtmWgt=   1.0078250   1.0078250  30.9737634  12.0000000  12.0000000  12.0000000  12.0000000  12.0000000  12.0000000   1.0078250
 NucSpn=           1           1           1           0           0           0           0           0           0           1
 AtZEff=  -1.0000000  -1.0000000 -12.9400000  -3.6000000  -3.6000000  -3.6000000  -3.6000000  -3.6000000  -3.6000000  -1.0000000
 NQMom=    0.0000000   0.0000000   0.0000000   0.0000000   0.0000000   0.0000000   0.0000000   0.0000000   0.0000000   0.0000000
 NMagM=    2.7928460   2.7928460   1.1316000   0.0000000   0.0000000   0.0000000   0.0000000   0.0000000   0.0000000   2.7928460
 AtZNuc=   1.0000000   1.0000000  15.0000000   6.0000000   6.0000000   6.0000000   6.0000000   6.0000000   6.0000000   1.0000000

  Atom        41          42          43          44          45          46          47          48          49          50
 IAtWgt=           1           1           1           1          12          12          12          12          12          12
 AtmWgt=   1.0078250   1.0078250   1.0078250   1.0078250  12.0000000  12.0000000  12.0000000  12.0000000  12.0000000  12.0000000
 NucSpn=           1           1           1           1           0           0           0           0           0           0
 AtZEff=  -1.0000000  -1.0000000  -1.0000000  -1.0000000  -3.6000000  -3.6000000  -3.6000000  -3.6000000  -3.6000000  -3.6000000
 NQMom=    0.0000000   0.0000000   0.0000000   0.0000000   0.0000000   0.0000000   0.0000000   0.0000000   0.0000000   0.0000000
 NMagM=    2.7928460   2.7928460   2.7928460   2.7928460   0.0000000   0.0000000   0.0000000   0.0000000   0.0000000   0.0000000
 AtZNuc=   1.0000000   1.0000000   1.0000000   1.0000000   6.0000000   6.0000000   6.0000000   6.0000000   6.0000000   6.0000000

  Atom        51          52          53          54          55          56          57          58          59          60
 IAtWgt=          12          12          12          12          12          12          31          12          12          12
 AtmWgt=  12.0000000  12.0000000  12.0000000  12.0000000  12.0000000  12.0000000  30.9737634  12.0000000  12.0000000  12.0000000
 NucSpn=           0           0           0           0           0           0           1           0           0           0
 AtZEff=  -3.6000000  -3.6000000  -3.6000000  -3.6000000  -3.6000000  -3.6000000 -12.9400000  -3.6000000  -3.6000000  -3.6000000
 NQMom=    0.0000000   0.0000000   0.0000000   0.0000000   0.0000000   0.0000000   0.0000000   0.0000000   0.0000000   0.0000000
 NMagM=    0.0000000   0.0000000   0.0000000   0.0000000   0.0000000   0.0000000   1.1316000   0.0000000   0.0000000   0.0000000
 AtZNuc=   6.0000000   6.0000000   6.0000000   6.0000000   6.0000000   6.0000000  15.0000000   6.0000000   6.0000000   6.0000000

  Atom        61          62          63          64          65          66          67          68          69          70
 IAtWgt=          12          12          12           1           1           1           1           1          12          12
 AtmWgt=  12.0000000  12.0000000  12.0000000   1.0078250   1.0078250   1.0078250   1.0078250   1.0078250  12.0000000  12.0000000
 NucSpn=           0           0           0           1           1           1           1           1           0           0
 AtZEff=  -3.6000000  -3.6000000  -3.6000000  -1.0000000  -1.0000000  -1.0000000  -1.0000000  -1.0000000  -3.6000000  -3.6000000
 NQMom=    0.0000000   0.0000000   0.0000000   0.0000000   0.0000000   0.0000000   0.0000000   0.0000000   0.0000000   0.0000000
 NMagM=    0.0000000   0.0000000   0.0000000   2.7928460   2.7928460   2.7928460   2.7928460   2.7928460   0.0000000   0.0000000
 AtZNuc=   6.0000000   6.0000000   6.0000000   1.0000000   1.0000000   1.0000000   1.0000000   1.0000000   6.0000000   6.0000000

  Atom        71          72          73          74          75          76          77          78          79          80
 IAtWgt=          12          12          12          12           1          12          12          12          12          12
 AtmWgt=  12.0000000  12.0000000  12.0000000  12.0000000   1.0078250  12.0000000  12.0000000  12.0000000  12.0000000  12.0000000
 NucSpn=           0           0           0           0           1           0           0           0           0           0
 AtZEff=  -3.6000000  -3.6000000  -3.6000000  -3.6000000  -1.0000000  -3.6000000  -3.6000000  -3.6000000  -3.6000000  -3.6000000
 NQMom=    0.0000000   0.0000000   0.0000000   0.0000000   0.0000000   0.0000000   0.0000000   0.0000000   0.0000000   0.0000000
 NMagM=    0.0000000   0.0000000   0.0000000   0.0000000   2.7928460   0.0000000   0.0000000   0.0000000   0.0000000   0.0000000
 AtZNuc=   6.0000000   6.0000000   6.0000000   6.0000000   1.0000000   6.0000000   6.0000000   6.0000000   6.0000000   6.0000000

  Atom        81          82          83          84          85          86          87          88          89          90
 IAtWgt=          12           1           1           1           1           1           1           1           1           1
 AtmWgt=  12.0000000   1.0078250   1.0078250   1.0078250   1.0078250   1.0078250   1.0078250   1.0078250   1.0078250   1.0078250
 NucSpn=           0           1           1           1           1           1           1           1           1           1
 AtZEff=  -3.6000000  -1.0000000  -1.0000000  -1.0000000  -1.0000000  -1.0000000  -1.0000000  -1.0000000  -1.0000000  -1.0000000
 NQMom=    0.0000000   0.0000000   0.0000000   0.0000000   0.0000000   0.0000000   0.0000000   0.0000000   0.0000000   0.0000000
 NMagM=    0.0000000   2.7928460   2.7928460   2.7928460   2.7928460   2.7928460   2.7928460   2.7928460   2.7928460   2.7928460
 AtZNuc=   6.0000000   1.0000000   1.0000000   1.0000000   1.0000000   1.0000000   1.0000000   1.0000000   1.0000000   1.0000000

  Atom        91          92          93          94          95          96          97          98          99
 IAtWgt=           1           1           1           1           1           1           1           1         106
 AtmWgt=   1.0078250   1.0078250   1.0078250   1.0078250   1.0078250   1.0078250   1.0078250   1.0078250 105.9032000
 NucSpn=           1           1           1           1           1           1           1           1           0
 AtZEff=  -1.0000000  -1.0000000  -1.0000000  -1.0000000  -1.0000000  -1.0000000  -1.0000000  -1.0000000-237.3600000
 NQMom=    0.0000000   0.0000000   0.0000000   0.0000000   0.0000000   0.0000000   0.0000000   0.0000000   0.0000000
 NMagM=    2.7928460   2.7928460   2.7928460   2.7928460   2.7928460   2.7928460   2.7928460   2.7928460   0.0000000
 AtZNuc=   1.0000000   1.0000000   1.0000000   1.0000000   1.0000000   1.0000000   1.0000000   1.0000000  46.0000000
 Leave Link  101 at Tue Apr  9 15:45:47 2024, MaxMem=  2147483648 cpu:         2.4
 (Enter /cluster/apps/gaussian/g09/l202.exe)
 Stoichiometry    C50H36ClF4NO3P2PdS
 Framework group  C1[X(C50H36ClF4NO3P2PdS)]
 Deg. of freedom   291
 Full point group                 C1      NOp   1
 RotChk:  IX=3 Diff= 2.54D-15
 Largest Abelian subgroup         C1      NOp   1
 Largest concise Abelian subgroup C1      NOp   1
                         Standard orientation:                         
 ---------------------------------------------------------------------
 Center     Atomic      Atomic             Coordinates (Angstroms)
 Number     Number       Type             X           Y           Z
 ---------------------------------------------------------------------
      1          6           0       -1.954932    0.278566   -0.965119
      2          6           0       -2.224059    0.819860   -2.243710
      3          1           0       -1.605642    0.544497   -3.100453
      4          6           0       -3.221138    1.771716   -2.373355
      5          1           0       -3.390486    2.269153   -3.330232
      6          6           0       -4.015956    2.164068   -1.279036
      7          6           0       -3.874038    1.510487   -0.057856
      8          1           0       -4.539921    1.710156    0.780601
      9          6           0       -2.881887    0.528455    0.084639
     10          6           0       -2.748983   -0.451004    1.136179
     11          6           0       -3.170720   -0.397955    2.463709
     12          6           0       -2.825179   -1.409368    3.349988
     13          6           0       -2.066726   -2.500486    2.913092
     14          6           0       -1.652429   -2.589940    1.586320
     15          6           0       -2.010698   -1.581214    0.689436
     16          7           0       -1.556904   -1.468754   -0.634121
     17         16           0       -1.985871   -2.581012   -1.807529
     18          8           0       -1.243424   -2.195065   -2.999102
     19          8           0       -1.931247   -3.936250   -1.287920
     20          6           0       -3.731604   -2.171713   -2.048617
     21         17           0       -4.465701   -3.243747   -3.233660
     22          1           0       -3.788503   -1.128531   -2.386371
     23          1           0       -4.221903   -2.294958   -1.073391
     24          9           0       -0.850101   -3.581411    1.245326
     25          9           0       -1.685444   -3.418150    3.788611
     26          9           0       -3.151898   -1.315894    4.631549
     27          9           0       -3.828651    0.660817    2.928467
     28          8           0       -4.902067    3.162858   -1.518285
     29          6           0       -5.711706    3.587679   -0.463655
     30          1           0       -5.114316    3.947602    0.394501
     31          1           0       -6.384042    2.786322   -0.106306
     32          1           0       -6.323602    4.416062   -0.843935
     33         15           0        2.177558   -1.154525   -0.404165
     34          6           0        3.686736   -0.647892   -1.307220
     35          6           0        4.960401   -1.115552   -0.963792
     36          6           0        6.076302   -0.697960   -1.682097
     37          6           0        5.929894    0.188427   -2.750322
     38          6           0        4.663789    0.649913   -3.102890
     39          6           0        3.545114    0.228061   -2.386646
     40          1           0        2.546079    0.584609   -2.652186
     41          1           0        4.544437    1.342601   -3.939060
     42          1           0        6.807845    0.517126   -3.311718
     43          1           0        7.067920   -1.066209   -1.408022
     44          1           0        5.082729   -1.807126   -0.127797
     45          6           0        2.445849   -0.656150    1.340513
     46          6           0        1.930066   -1.481363    2.352882
     47          6           0        1.974903   -1.095763    3.688182
     48          6           0        2.545576    0.126545    4.037599
     49          6           0        3.026714    0.967375    3.040678
     50          6           0        2.958755    0.612583    1.685936
     51          6           0        3.409538    1.636707    0.695407
     52          6           0        4.776285    1.913202    0.593532
     53          6           0        5.253921    2.904648   -0.258352
     54          6           0        4.355412    3.665628   -1.000002
     55          6           0        2.988996    3.418120   -0.899052
     56          6           0        2.499644    2.401582   -0.071382
     57         15           0        0.713405    1.977983   -0.012571
     58          6           0       -0.145488    3.257068   -0.986926
     59          6           0       -1.126787    4.087276   -0.435137
     60          6           0       -1.868022    4.938294   -1.253488
     61          6           0       -1.632269    4.978009   -2.625150
     62          6           0       -0.662929    4.145509   -3.185053
     63          6           0        0.060304    3.276072   -2.375236
     64          1           0        0.782602    2.590196   -2.826990
     65          1           0       -0.486006    4.155742   -4.263148
     66          1           0       -2.217075    5.645033   -3.262538
     67          1           0       -2.642778    5.569985   -0.813234
     68          1           0       -1.327247    4.055761    0.637279
     69          6           0        0.299494    2.336188    1.730212
     70          6           0       -0.350509    1.363593    2.490818
     71          6           0       -0.661207    1.604089    3.827993
     72          6           0       -0.304974    2.815687    4.414699
     73          6           0        0.366126    3.785376    3.665576
     74          6           0        0.667336    3.549512    2.327428
     75          1           0        1.198375    4.306034    1.743321
     76          6           0        1.428221   -3.648389   -1.283888
     77          6           0        1.428388   -5.040561   -1.343939
     78          6           0        2.278806   -5.771960   -0.519503
     79          6           0        3.130695   -5.110242    0.367282
     80          6           0        3.128062   -3.720359    0.434090
     81          6           0        2.272171   -2.978145   -0.392705
     82          1           0        3.777799   -3.214107    1.152054
     83          1           0        3.795315   -5.682858    1.018832
     84          1           0        2.273328   -6.864001   -0.557561
     85          1           0        0.738944   -5.545402   -2.023340
     86          1           0        0.756453   -3.078599   -1.929562
     87          1           0        0.655314    4.731765    4.129055
     88          1           0       -0.544254    3.006177    5.463727
     89          1           0       -1.182635    0.840395    4.409590
     90          1           0       -0.585128    0.403099    2.029860
     91          1           0        2.290400    4.030310   -1.471848
     92          1           0        4.714851    4.459503   -1.658832
     93          1           0        6.328416    3.083989   -0.336751
     94          1           0        5.473921    1.318183    1.187095
     95          1           0        3.431808    1.947804    3.301512
     96          1           0        2.591298    0.438951    5.082987
     97          1           0        1.558873   -1.754799    4.453912
     98          1           0        1.476465   -2.438684    2.086492
     99         46           0        0.053746   -0.119189   -0.711749
 ---------------------------------------------------------------------
 Rotational constants (GHZ):      0.0454614      0.0400834      0.0343634
 Leave Link  202 at Tue Apr  9 15:45:47 2024, MaxMem=  2147483648 cpu:         0.3
 (Enter /cluster/apps/gaussian/g09/l301.exe)
 General basis read from cards:  (5D, 7F)
 Centers:       1      2      4      6      7      9     10     11     12     13
 Centers:      14     15     20     29     34     35     36     37     38     39
 Centers:      45     46     47     48     49     50     51     52     53     54
 Centers:      55     56     58     59     60     61     62     63     69     70
 Centers:      71     72     73     74     76     77     78     79     80     81
 Centers:       3      5      8     22     23     30     31     32     40     41
 Centers:      42     43     44     64     65     66     67     68     75     82
 Centers:      83     84     85     86     87     88     89     90     91     92
 Centers:      93     94     95     96     97     98     17     24     25     26
 Centers:      27     16     33     57     21     18     19     28     99
 def2tzvp
 ****
 ======================================================================================================
                                       Pseudopotential Parameters
 ======================================================================================================
  Center     Atomic      Valence      Angular      Power
  Number     Number     Electrons     Momentum     of R      Exponent        Coefficient   SO-Coeffient
 ======================================================================================================
    1          6
                                   No pseudopotential on this center.
    2          6
                                   No pseudopotential on this center.
    3          1
                                   No pseudopotential on this center.
    4          6
                                   No pseudopotential on this center.
    5          1
                                   No pseudopotential on this center.
    6          6
                                   No pseudopotential on this center.
    7          6
                                   No pseudopotential on this center.
    8          1
                                   No pseudopotential on this center.
    9          6
                                   No pseudopotential on this center.
   10          6
                                   No pseudopotential on this center.
   11          6
                                   No pseudopotential on this center.
   12          6
                                   No pseudopotential on this center.
   13          6
                                   No pseudopotential on this center.
   14          6
                                   No pseudopotential on this center.
   15          6
                                   No pseudopotential on this center.
   16          7
                                   No pseudopotential on this center.
   17         16
                                   No pseudopotential on this center.
   18          8
                                   No pseudopotential on this center.
   19          8
                                   No pseudopotential on this center.
   20          6
                                   No pseudopotential on this center.
   21         17
                                   No pseudopotential on this center.
   22          1
                                   No pseudopotential on this center.
   23          1
                                   No pseudopotential on this center.
   24          9
                                   No pseudopotential on this center.
   25          9
                                   No pseudopotential on this center.
   26          9
                                   No pseudopotential on this center.
   27          9
                                   No pseudopotential on this center.
   28          8
                                   No pseudopotential on this center.
   29          6
                                   No pseudopotential on this center.
   30          1
                                   No pseudopotential on this center.
   31          1
                                   No pseudopotential on this center.
   32          1
                                   No pseudopotential on this center.
   33         15
                                   No pseudopotential on this center.
   34          6
                                   No pseudopotential on this center.
   35          6
                                   No pseudopotential on this center.
   36          6
                                   No pseudopotential on this center.
   37          6
                                   No pseudopotential on this center.
   38          6
                                   No pseudopotential on this center.
   39          6
                                   No pseudopotential on this center.
   40          1
                                   No pseudopotential on this center.
   41          1
                                   No pseudopotential on this center.
   42          1
                                   No pseudopotential on this center.
   43          1
                                   No pseudopotential on this center.
   44          1
                                   No pseudopotential on this center.
   45          6
                                   No pseudopotential on this center.
   46          6
                                   No pseudopotential on this center.
   47          6
                                   No pseudopotential on this center.
   48          6
                                   No pseudopotential on this center.
   49          6
                                   No pseudopotential on this center.
   50          6
                                   No pseudopotential on this center.
   51          6
                                   No pseudopotential on this center.
   52          6
                                   No pseudopotential on this center.
   53          6
                                   No pseudopotential on this center.
   54          6
                                   No pseudopotential on this center.
   55          6
                                   No pseudopotential on this center.
   56          6
                                   No pseudopotential on this center.
   57         15
                                   No pseudopotential on this center.
   58          6
                                   No pseudopotential on this center.
   59          6
                                   No pseudopotential on this center.
   60          6
                                   No pseudopotential on this center.
   61          6
                                   No pseudopotential on this center.
   62          6
                                   No pseudopotential on this center.
   63          6
                                   No pseudopotential on this center.
   64          1
                                   No pseudopotential on this center.
   65          1
                                   No pseudopotential on this center.
   66          1
                                   No pseudopotential on this center.
   67          1
                                   No pseudopotential on this center.
   68          1
                                   No pseudopotential on this center.
   69          6
                                   No pseudopotential on this center.
   70          6
                                   No pseudopotential on this center.
   71          6
                                   No pseudopotential on this center.
   72          6
                                   No pseudopotential on this center.
   73          6
                                   No pseudopotential on this center.
   74          6
                                   No pseudopotential on this center.
   75          1
                                   No pseudopotential on this center.
   76          6
                                   No pseudopotential on this center.
   77          6
                                   No pseudopotential on this center.
   78          6
                                   No pseudopotential on this center.
   79          6
                                   No pseudopotential on this center.
   80          6
                                   No pseudopotential on this center.
   81          6
                                   No pseudopotential on this center.
   82          1
                                   No pseudopotential on this center.
   83          1
                                   No pseudopotential on this center.
   84          1
                                   No pseudopotential on this center.
   85          1
                                   No pseudopotential on this center.
   86          1
                                   No pseudopotential on this center.
   87          1
                                   No pseudopotential on this center.
   88          1
                                   No pseudopotential on this center.
   89          1
                                   No pseudopotential on this center.
   90          1
                                   No pseudopotential on this center.
   91          1
                                   No pseudopotential on this center.
   92          1
                                   No pseudopotential on this center.
   93          1
                                   No pseudopotential on this center.
   94          1
                                   No pseudopotential on this center.
   95          1
                                   No pseudopotential on this center.
   96          1
                                   No pseudopotential on this center.
   97          1
                                   No pseudopotential on this center.
   98          1
                                   No pseudopotential on this center.
   99         46           18
                                      G and up 
                                                     2        1.0000000        0.00000000    0.00000000
                                      S - G
                                                     2       12.4300000      240.22904000    0.00000000
                                                     2        6.1707590       35.17194300    0.00000000
                                      P - G
                                                     2       11.0800000      170.41727600    0.00000000
                                                     2        5.8295540       28.47213300    0.00000000
                                      D - G
                                                     2        9.5100000       69.01384500    0.00000000
                                                     2        4.1397810       11.75086200    0.00000000
                                      F - G
                                                     2       13.2700000      -31.92955400    0.00000000
                                                     2        6.6300000       -5.39821700    0.00000000
 ======================================================================================================
 Ernie: Thresh=  0.10000D-02 Tol=  0.10000D-05 Strict=F.
 There are  2518 symmetry adapted cartesian basis functions of A   symmetry.
 There are  2202 symmetry adapted basis functions of A   symmetry.
  2202 basis functions,  3596 primitive gaussians,  2518 cartesian basis functions
   242 alpha electrons      242 beta electrons
       nuclear repulsion energy     12266.6986615601 Hartrees.
 IExCor= 4639 DFT=T Ex+Corr=wB97XD ExCW=0 ScaHFX=  1.000000
 ScaDFX=  1.000000  1.000000  1.000000  1.000000 ScalE2=  1.000000  1.000000
 IRadAn=      5 IRanWt=     -1 IRanGd=            0 ICorTp=0 IEmpDi=121
  HFx wShort=  0.000000 wLong=  0.200000 cFull=  0.222036 cShort=  0.000000 cLong=  0.777964
  DFx wShort=  0.000000 wLong=  0.200000 cFull=  0.000000 cShort=  0.000000 cLong=  1.000000
 NAtoms=   99 NActive=   99 NUniq=   99 SFac= 1.00D+00 NAtFMM=   60 NAOKFM=T Big=T
 Integral buffers will be    131072 words long.
 Raffenetti 2 integral format.
 Two-electron integral symmetry is turned on.
 R6Disp:  Grimme-D2 Dispersion energy=       -0.1453563909 Hartrees.
 Nuclear repulsion after empirical dispersion term =    12266.5533051692 Hartrees.
 ------------------------------------------------------------------------------
 Polarizable Continuum Model (PCM)
 =================================
 Model                : PCM (using non-symmetric T matrix).
 Atomic radii         : SMD-Coulomb.
 Polarization charges : Total charges.
 Charge compensation  : None.
 Solution method      : On-the-fly selection.
 Cavity type          : VdW (van der Waals Surface) (Alpha=1.000).
 Cavity algorithm     : GePol (No added spheres)
                        Default sphere list used, NSphG=   99.
                        Lebedev-Laikov grids with approx.  5.0 points / Ang**2.
                        Smoothing algorithm: Karplus/York (Gamma=1.0000).
                        Polarization charges: spherical gaussians, with
                                              point-specific exponents (IZeta= 3).
                        Self-potential: point-specific (ISelfS= 7).
                        Self-field    : sphere-specific E.n sum rule (ISelfD= 2).
 Solvent              : Dichloromethane, Eps=   8.930000 Eps(inf)=   2.028346
 ------------------------------------------------------------------------------
 GePol: Number of generator spheres                  =      99
 GePol: Total number of spheres                      =      99
 GePol: Number of exposed spheres                    =      99 (100.00%)
 GePol: Number of points                             =    7264
 GePol: Average weight of points                     =       0.11
 GePol: Minimum weight of points                     =   0.16D-10
 GePol: Maximum weight of points                     =    0.21501
 GePol: Number of points with low weight             =     472
 GePol: Fraction of low-weight points (<1% of avg)   =       6.50%
 GePol: Cavity surface area                          =    809.454 Ang**2
 GePol: Cavity volume                                =    902.437 Ang**3
 ------------------------------------------------------------------------------
 Atomic radii for non-electrostatic terms: SMD-CDS.
 ------------------------------------------------------------------------------
 PCM non-electrostatic energy =        -0.0202616135 Hartrees.
 Nuclear repulsion after PCM non-electrostatic terms =    12266.5330435556 Hartrees.
 Leave Link  301 at Tue Apr  9 15:45:47 2024, MaxMem=  2147483648 cpu:         0.4
 (Enter /cluster/apps/gaussian/g09/l302.exe)
 NPDir=0 NMtPBC=     1 NCelOv=     1 NCel=       1 NClECP=     1 NCelD=      1
         NCelK=      1 NCelE2=     1 NClLst=     1 CellRange=     0.0.
 One-electron integrals computed using PRISM.
   1 Symmetry operations used in ECPInt.
 ECPInt:  NShTT=  359976 NPrTT= 1134806 LenC2=  269241 LenP2D=  540326.
 LDataN:  DoStor=T MaxTD1= 7 Len=  274
 NBasis=  2202 RedAO= T EigKep=  3.66D-06  NBF=  2202
 NBsUse=  2202 1.00D-06 EigRej= -1.00D+00 NBFU=  2202
 Precomputing XC quadrature grid using
 IXCGrd= 4 IRadAn=           5 IRanWt=          -1 IRanGd=           0 AccXCQ= 0.00D+00.
 Defaulting to unpruned grid for atomic number  46.
 Generated NRdTot=       0 NPtTot=           0 NUsed=           0 NTot=          32
 NSgBfM=  2245  2245  2253  2256  2256 MxSgAt=    99 MxSgA2=    99.
 Leave Link  302 at Tue Apr  9 15:46:04 2024, MaxMem=  2147483648 cpu:       138.1
 (Enter /cluster/apps/gaussian/g09/l303.exe)
 DipDrv:  MaxL=1.
 Leave Link  303 at Tue Apr  9 15:46:06 2024, MaxMem=  2147483648 cpu:         5.0
 (Enter /cluster/apps/gaussian/g09/l401.exe)
 ExpMin= 3.70D-02 ExpMax= 6.95D+04 ExpMxC= 2.37D+03 IAcc=3 IRadAn=         5 AccDes= 0.00D+00
 Harris functional with IExCor= 4639 and IRadAn=       5 diagonalized for initial guess.
 HarFok:  IExCor= 4639 AccDes= 0.00D+00 IRadAn=         5 IDoV= 1 UseB2=F ITyADJ=14
 ICtDFT=  3500011 ScaDFX=  1.000000  1.000000  1.000000  1.000000
 Defaulting to unpruned grid for atomic number  46.
 Defaulting to unpruned grid for atomic number  46.
 Defaulting to unpruned grid for atomic number  46.
 Defaulting to unpruned grid for atomic number  46.
 Defaulting to unpruned grid for atomic number  46.
 Defaulting to unpruned grid for atomic number  46.
 Defaulting to unpruned grid for atomic number  46.
 Defaulting to unpruned grid for atomic number  46.
 FoFCou: FMM=F IPFlag=           0 FMFlag=      100000 FMFlg1=        2001
         NFxFlg=           0 DoJE=T BraDBF=F KetDBF=T FulRan=T
         wScrn=  0.000000 ICntrl=     500 IOpCl=  0 I1Cent=   200000004 NGrid=           0
         NMat0=    1 NMatS0=      1 NMatT0=    0 NMatD0=    1 NMtDS0=    0 NMtDT0=    0
 Petite list used in FoFCou.
 Harris En= -4136.26550973561    
 JPrj=0 DoOrth=F DoCkMO=F.
 Leave Link  401 at Tue Apr  9 15:47:08 2024, MaxMem=  2147483648 cpu:       494.0
 (Enter /cluster/apps/gaussian/g09/l502.exe)
 Closed shell SCF:
 Using DIIS extrapolation, IDIIS=  1040.
 Integral symmetry usage will be decided dynamically.
 IVT=    19078022 IEndB=    19078022 NGot=  2147483648 MDV=  2134765109
 LenX=  2134765109 LenY=  2128422267
 Requested convergence on RMS density matrix=1.00D-08 within 128 cycles.
 Requested convergence on MAX density matrix=1.00D-06.
 Requested convergence on             energy=1.00D-06.
 No special actions if energy rises.
 Fock matrices will be formed incrementally for  20 cycles.

 Cycle   1  Pass 1  IDiag  1:
 FoFJK:  IHMeth= 1 ICntrl=       0 DoSepK=T KAlg= 0 I1Cent=   0 FoldK=F
 IRaf=         1 NMat=   1 IRICut=       1 DoRegI=T DoRafI=F ISym2E= 0.
 FoFCou: FMM=T IPFlag=           0 FMFlag=      100000 FMFlg1=        2001
         NFxFlg=           0 DoJE=T BraDBF=F KetDBF=F FulRan=T
         wScrn=  0.000000 ICntrl=     500 IOpCl=  0 I1Cent=           0 NGrid=           0
         NMat0=    1 NMatS0=      1 NMatT0=    0 NMatD0=    1 NMtDS0=    0 NMtDT0=    0
 Symmetry not used in FoFCou.
 FMM levels:  10  Number of levels for PrismC:   9
 Defaulting to unpruned grid for atomic number  46.
 Defaulting to unpruned grid for atomic number  46.
 Defaulting to unpruned grid for atomic number  46.
 Defaulting to unpruned grid for atomic number  46.
 Defaulting to unpruned grid for atomic number  46.
 Defaulting to unpruned grid for atomic number  46.
 Defaulting to unpruned grid for atomic number  46.
 Defaulting to unpruned grid for atomic number  46.
 Inv3:  Mode=1 IEnd=   158297088.
 Iteration    1 A*A^-1 deviation from unit magnitude is 1.04D-14 for   7246.
 Iteration    1 A*A^-1 deviation from orthogonality  is 3.74D-15 for   5042   4705.
 Iteration    1 A^-1*A deviation from unit magnitude is 1.03D-14 for   7246.
 Iteration    1 A^-1*A deviation from orthogonality  is 5.84D-11 for   2947   2945.
 E= -4260.90997969026    
 DIIS: error= 4.15D-02 at cycle   1 NSaved=   1.
 NSaved= 1 IEnMin= 1 EnMin= -4260.90997969026     IErMin= 1 ErrMin= 4.15D-02
 ErrMax= 4.15D-02  0.00D+00 EMaxC= 1.00D-01 BMatC= 1.65D+01 BMatP= 1.65D+01
 IDIUse=3 WtCom= 5.85D-01 WtEn= 4.15D-01
 Coeff-Com:  0.100D+01
 Coeff-En:   0.100D+01
 Coeff:      0.100D+01
 Gap=    -0.075 Goal=   None    Shift=    0.000
 GapD=   -0.075 DampG=0.250 DampE=0.250 DampFc=0.1250 IDamp=-1.
 Damping current iteration by 1.25D-01
 RMSDP=1.44D-01 MaxDP=5.66D+01              OVMax= 9.91D-01

 Cycle   2  Pass 1  IDiag  1:
 RMSU=  1.77D-02    CP:  1.44D+00
 E= -4263.47515707096     Delta-E=       -2.565177380700 Rises=F Damp=T
 DIIS: error= 3.33D-02 at cycle   2 NSaved=   2.
 NSaved= 2 IEnMin= 2 EnMin= -4263.47515707096     IErMin= 2 ErrMin= 3.33D-02
 ErrMax= 3.33D-02  0.00D+00 EMaxC= 1.00D-01 BMatC= 7.05D+00 BMatP= 1.65D+01
 IDIUse=3 WtCom= 6.67D-01 WtEn= 3.33D-01
 Coeff-Com: -0.743D+00 0.174D+01
 Coeff-En:   0.240D+00 0.760D+00
 Coeff:     -0.416D+00 0.142D+01
 Gap=    -0.019 Goal=   None    Shift=    0.000
 RMSDP=1.88D-02 MaxDP=7.13D+00 DE=-2.57D+00 OVMax= 9.61D-01

 Cycle   3  Pass 1  IDiag  1:
 RMSU=  3.65D-03    CP:  4.95D-01  3.94D-02
 E= -4273.47084023050     Delta-E=       -9.995683159545 Rises=F Damp=F
 DIIS: error= 1.58D-02 at cycle   3 NSaved=   3.
 NSaved= 3 IEnMin= 3 EnMin= -4273.47084023050     IErMin= 3 ErrMin= 1.58D-02
 ErrMax= 1.58D-02  0.00D+00 EMaxC= 1.00D-01 BMatC= 3.73D+00 BMatP= 7.05D+00
 IDIUse=3 WtCom= 8.42D-01 WtEn= 1.58D-01
 Coeff-Com: -0.161D+00 0.592D+00 0.568D+00
 Coeff-En:   0.151D+00 0.000D+00 0.849D+00
 Coeff:     -0.112D+00 0.499D+00 0.613D+00
 Gap=     0.291 Goal=   None    Shift=    0.000
 RMSDP=2.61D-03 MaxDP=1.08D+00 DE=-1.00D+01 OVMax= 6.05D-01

 Cycle   4  Pass 1  IDiag  1:
 RMSU=  2.09D-03    CP:  5.24D-01  2.74D-02  5.81D-01
 E= -4274.62460607830     Delta-E=       -1.153765847797 Rises=F Damp=F
 DIIS: error= 1.45D-02 at cycle   4 NSaved=   4.
 NSaved= 4 IEnMin= 4 EnMin= -4274.62460607830     IErMin= 4 ErrMin= 1.45D-02
 ErrMax= 1.45D-02  0.00D+00 EMaxC= 1.00D-01 BMatC= 2.02D+00 BMatP= 3.73D+00
 IDIUse=3 WtCom= 8.55D-01 WtEn= 1.45D-01
 Coeff-Com: -0.105D+00 0.214D+00 0.383D+00 0.507D+00
 Coeff-En:   0.000D+00 0.000D+00 0.378D+00 0.622D+00
 Coeff:     -0.897D-01 0.183D+00 0.382D+00 0.524D+00
 Gap=     0.360 Goal=   None    Shift=    0.000
 RMSDP=1.41D-03 MaxDP=4.74D-01 DE=-1.15D+00 OVMax= 3.73D-01

 Cycle   5  Pass 1  IDiag  1:
 RMSU=  7.75D-04    CP:  4.81D-01  6.66D-03  7.14D-01  5.42D-01
 E= -4275.96160082517     Delta-E=       -1.336994746864 Rises=F Damp=F
 DIIS: error= 2.67D-03 at cycle   5 NSaved=   5.
 NSaved= 5 IEnMin= 5 EnMin= -4275.96160082517     IErMin= 5 ErrMin= 2.67D-03
 ErrMax= 2.67D-03  0.00D+00 EMaxC= 1.00D-01 BMatC= 9.32D-02 BMatP= 2.02D+00
 IDIUse=3 WtCom= 9.73D-01 WtEn= 2.67D-02
 Coeff-Com: -0.456D-01 0.591D-01 0.778D-01 0.208D+00 0.700D+00
 Coeff-En:   0.000D+00 0.000D+00 0.000D+00 0.000D+00 0.100D+01
 Coeff:     -0.444D-01 0.575D-01 0.757D-01 0.203D+00 0.708D+00
 Gap=     0.228 Goal=   None    Shift=    0.000
 RMSDP=4.65D-04 MaxDP=1.47D-01 DE=-1.34D+00 OVMax= 1.06D-01

 Cycle   6  Pass 1  IDiag  1:
 RMSU=  2.96D-04    CP:  4.64D-01  4.97D-03  6.85D-01  6.87D-01  9.05D-01
 E= -4276.01044300852     Delta-E=       -0.048842183358 Rises=F Damp=F
 DIIS: error= 1.62D-03 at cycle   6 NSaved=   6.
 NSaved= 6 IEnMin= 6 EnMin= -4276.01044300852     IErMin= 6 ErrMin= 1.62D-03
 ErrMax= 1.62D-03  0.00D+00 EMaxC= 1.00D-01 BMatC= 3.49D-02 BMatP= 9.32D-02
 IDIUse=3 WtCom= 9.84D-01 WtEn= 1.62D-02
 Coeff-Com: -0.188D-01 0.199D-01-0.737D-02 0.929D-02 0.395D+00 0.602D+00
 Coeff-En:   0.000D+00 0.000D+00 0.000D+00 0.000D+00 0.262D+00 0.738D+00
 Coeff:     -0.185D-01 0.196D-01-0.725D-02 0.913D-02 0.393D+00 0.604D+00
 Gap=     0.231 Goal=   None    Shift=    0.000
 RMSDP=1.51D-04 MaxDP=3.25D-02 DE=-4.88D-02 OVMax= 3.71D-02

 Cycle   7  Pass 1  IDiag  1:
 RMSU=  1.04D-04    CP:  4.64D-01  4.75D-03  6.87D-01  6.63D-01  1.01D+00
                    CP:  8.11D-01
 E= -4276.03570166708     Delta-E=       -0.025258658556 Rises=F Damp=F
 DIIS: error= 4.62D-04 at cycle   7 NSaved=   7.
 NSaved= 7 IEnMin= 7 EnMin= -4276.03570166708     IErMin= 7 ErrMin= 4.62D-04
 ErrMax= 4.62D-04  0.00D+00 EMaxC= 1.00D-01 BMatC= 2.13D-03 BMatP= 3.49D-02
 IDIUse=3 WtCom= 9.95D-01 WtEn= 4.62D-03
 Coeff-Com: -0.537D-02 0.648D-02-0.388D-02-0.244D-01 0.907D-01 0.202D+00
 Coeff-Com:  0.735D+00
 Coeff-En:   0.000D+00 0.000D+00 0.000D+00 0.000D+00 0.000D+00 0.000D+00
 Coeff-En:   0.100D+01
 Coeff:     -0.535D-02 0.645D-02-0.386D-02-0.242D-01 0.902D-01 0.201D+00
 Coeff:      0.736D+00
 Gap=     0.233 Goal=   None    Shift=    0.000
 RMSDP=4.53D-05 MaxDP=6.68D-03 DE=-2.53D-02 OVMax= 1.27D-02

 Cycle   8  Pass 1  IDiag  1:
 RMSU=  3.77D-05    CP:  4.63D-01  4.78D-03  6.89D-01  6.56D-01  1.02D+00
                    CP:  8.35D-01  9.49D-01
 E= -4276.03774245413     Delta-E=       -0.002040787051 Rises=F Damp=F
 DIIS: error= 1.26D-04 at cycle   8 NSaved=   8.
 NSaved= 8 IEnMin= 8 EnMin= -4276.03774245413     IErMin= 8 ErrMin= 1.26D-04
 ErrMax= 1.26D-04  0.00D+00 EMaxC= 1.00D-01 BMatC= 1.63D-04 BMatP= 2.13D-03
 IDIUse=3 WtCom= 9.99D-01 WtEn= 1.26D-03
 Coeff-Com: -0.520D-03 0.632D-03-0.845D-03-0.121D-01 0.103D-01 0.320D-01
 Coeff-Com:  0.295D+00 0.675D+00
 Coeff-En:   0.000D+00 0.000D+00 0.000D+00 0.000D+00 0.000D+00 0.000D+00
 Coeff-En:   0.000D+00 0.100D+01
 Coeff:     -0.519D-03 0.631D-03-0.844D-03-0.121D-01 0.103D-01 0.320D-01
 Coeff:      0.295D+00 0.676D+00
 Gap=     0.233 Goal=   None    Shift=    0.000
 RMSDP=1.84D-05 MaxDP=2.87D-03 DE=-2.04D-03 OVMax= 6.46D-03

 Cycle   9  Pass 1  IDiag  1:
 RMSU=  1.24D-05    CP:  4.62D-01  4.74D-03  6.90D-01  6.55D-01  1.03D+00
                    CP:  8.35D-01  1.03D+00  1.10D+00
 E= -4276.03796814100     Delta-E=       -0.000225686872 Rises=F Damp=F
 DIIS: error= 4.72D-05 at cycle   9 NSaved=   9.
 NSaved= 9 IEnMin= 9 EnMin= -4276.03796814100     IErMin= 9 ErrMin= 4.72D-05
 ErrMax= 4.72D-05  0.00D+00 EMaxC= 1.00D-01 BMatC= 2.51D-05 BMatP= 1.63D-04
 IDIUse=1 WtCom= 1.00D+00 WtEn= 0.00D+00
 Coeff-Com:  0.600D-03-0.825D-03-0.579D-03-0.169D-02-0.449D-02-0.634D-02
 Coeff-Com:  0.179D-01 0.261D+00 0.734D+00
 Coeff:      0.600D-03-0.825D-03-0.579D-03-0.169D-02-0.449D-02-0.634D-02
 Coeff:      0.179D-01 0.261D+00 0.734D+00
 Gap=     0.233 Goal=   None    Shift=    0.000
 RMSDP=8.45D-06 MaxDP=1.80D-03 DE=-2.26D-04 OVMax= 3.92D-03

 Cycle  10  Pass 1  IDiag  1:
 RMSU=  5.95D-06    CP:  4.62D-01  4.67D-03  6.89D-01  6.54D-01  1.04D+00
                    CP:  8.42D-01  1.05D+00  1.19D+00  1.17D+00
 E= -4276.03801533994     Delta-E=       -0.000047198937 Rises=F Damp=F
 DIIS: error= 2.94D-05 at cycle  10 NSaved=  10.
 NSaved=10 IEnMin=10 EnMin= -4276.03801533994     IErMin=10 ErrMin= 2.94D-05
 ErrMax= 2.94D-05  0.00D+00 EMaxC= 1.00D-01 BMatC= 6.84D-06 BMatP= 2.51D-05
 IDIUse=1 WtCom= 1.00D+00 WtEn= 0.00D+00
 Coeff-Com:  0.283D-03-0.411D-03-0.518D-03 0.106D-02-0.244D-02-0.546D-03
 Coeff-Com: -0.263D-01-0.368D-01 0.176D+00 0.889D+00
 Coeff:      0.283D-03-0.411D-03-0.518D-03 0.106D-02-0.244D-02-0.546D-03
 Coeff:     -0.263D-01-0.368D-01 0.176D+00 0.889D+00
 Gap=     0.233 Goal=   None    Shift=    0.000
 RMSDP=5.79D-06 MaxDP=1.34D-03 DE=-4.72D-05 OVMax= 2.71D-03

 Cycle  11  Pass 1  IDiag  1:
 RMSU=  2.83D-06    CP:  4.62D-01  4.61D-03  6.89D-01  6.54D-01  1.04D+00
                    CP:  8.45D-01  1.06D+00  1.22D+00  1.37D+00  1.52D+00
 E= -4276.03803041945     Delta-E=       -0.000015079513 Rises=F Damp=F
 DIIS: error= 1.41D-05 at cycle  11 NSaved=  11.
 NSaved=11 IEnMin=11 EnMin= -4276.03803041945     IErMin=11 ErrMin= 1.41D-05
 ErrMax= 1.41D-05  0.00D+00 EMaxC= 1.00D-01 BMatC= 1.10D-06 BMatP= 6.84D-06
 IDIUse=1 WtCom= 1.00D+00 WtEn= 0.00D+00
 Coeff-Com: -0.360D-04 0.845D-04-0.564D-04 0.350D-03-0.250D-02-0.836D-03
 Coeff-Com: -0.659D-02-0.433D-01-0.102D+00 0.262D+00 0.892D+00
 Coeff:     -0.360D-04 0.845D-04-0.564D-04 0.350D-03-0.250D-02-0.836D-03
 Coeff:     -0.659D-02-0.433D-01-0.102D+00 0.262D+00 0.892D+00
 Gap=     0.233 Goal=   None    Shift=    0.000
 RMSDP=2.89D-06 MaxDP=4.39D-04 DE=-1.51D-05 OVMax= 1.76D-03

 Cycle  12  Pass 1  IDiag  1:
 RMSU=  1.38D-06    CP:  4.62D-01  4.58D-03  6.89D-01  6.54D-01  1.04D+00
                    CP:  8.45D-01  1.07D+00  1.24D+00  1.48D+00  1.81D+00
                    CP:  1.26D+00
 E= -4276.03803429236     Delta-E=       -0.000003872905 Rises=F Damp=F
 DIIS: error= 6.31D-06 at cycle  12 NSaved=  12.
 NSaved=12 IEnMin=12 EnMin= -4276.03803429236     IErMin=12 ErrMin= 6.31D-06
 ErrMax= 6.31D-06  0.00D+00 EMaxC= 1.00D-01 BMatC= 1.80D-07 BMatP= 1.10D-06
 IDIUse=1 WtCom= 1.00D+00 WtEn= 0.00D+00
 Coeff-Com: -0.218D-04 0.380D-04 0.834D-04 0.397D-04-0.108D-02-0.134D-02
 Coeff-Com: -0.181D-02-0.356D-02-0.333D-01-0.218D-01 0.237D+00 0.826D+00
 Coeff:     -0.218D-04 0.380D-04 0.834D-04 0.397D-04-0.108D-02-0.134D-02
 Coeff:     -0.181D-02-0.356D-02-0.333D-01-0.218D-01 0.237D+00 0.826D+00
 Gap=     0.233 Goal=   None    Shift=    0.000
 RMSDP=1.11D-06 MaxDP=1.54D-04 DE=-3.87D-06 OVMax= 7.05D-04

 Cycle  13  Pass 1  IDiag  1:
 RMSU=  5.30D-07    CP:  4.62D-01  4.58D-03  6.89D-01  6.54D-01  1.04D+00
                    CP:  8.45D-01  1.07D+00  1.25D+00  1.51D+00  1.88D+00
                    CP:  1.40D+00  1.40D+00
 E= -4276.03803497180     Delta-E=       -0.000000679443 Rises=F Damp=F
 DIIS: error= 3.81D-06 at cycle  13 NSaved=  13.
 NSaved=13 IEnMin=13 EnMin= -4276.03803497180     IErMin=13 ErrMin= 3.81D-06
 ErrMax= 3.81D-06  0.00D+00 EMaxC= 1.00D-01 BMatC= 5.34D-08 BMatP= 1.80D-07
 IDIUse=1 WtCom= 1.00D+00 WtEn= 0.00D+00
 Coeff-Com:  0.894D-05-0.133D-04 0.585D-04-0.356D-04 0.882D-04-0.656D-03
 Coeff-Com: -0.842D-03 0.103D-01 0.239D-01-0.696D-01-0.162D+00 0.240D+00
 Coeff-Com:  0.959D+00
 Coeff:      0.894D-05-0.133D-04 0.585D-04-0.356D-04 0.882D-04-0.656D-03
 Coeff:     -0.842D-03 0.103D-01 0.239D-01-0.696D-01-0.162D+00 0.240D+00
 Coeff:      0.959D+00
 Gap=     0.233 Goal=   None    Shift=    0.000
 RMSDP=8.06D-07 MaxDP=1.08D-04 DE=-6.79D-07 OVMax= 5.70D-04

 Cycle  14  Pass 1  IDiag  1:
 RMSU=  2.98D-07    CP:  4.62D-01  4.58D-03  6.89D-01  6.54D-01  1.04D+00
                    CP:  8.44D-01  1.07D+00  1.25D+00  1.53D+00  1.92D+00
                    CP:  1.49D+00  1.76D+00  1.55D+00
 E= -4276.03803524051     Delta-E=       -0.000000268712 Rises=F Damp=F
 DIIS: error= 1.86D-06 at cycle  14 NSaved=  14.
 NSaved=14 IEnMin=14 EnMin= -4276.03803524051     IErMin=14 ErrMin= 1.86D-06
 ErrMax= 1.86D-06  0.00D+00 EMaxC= 1.00D-01 BMatC= 1.86D-08 BMatP= 5.34D-08
 IDIUse=1 WtCom= 1.00D+00 WtEn= 0.00D+00
 Coeff-Com:  0.677D-05-0.991D-05 0.590D-05-0.337D-04 0.383D-03 0.155D-03
 Coeff-Com:  0.176D-03 0.545D-02 0.184D-01-0.310D-01-0.133D+00-0.105D+00
 Coeff-Com:  0.494D+00 0.750D+00
 Coeff:      0.677D-05-0.991D-05 0.590D-05-0.337D-04 0.383D-03 0.155D-03
 Coeff:      0.176D-03 0.545D-02 0.184D-01-0.310D-01-0.133D+00-0.105D+00
 Coeff:      0.494D+00 0.750D+00
 Gap=     0.233 Goal=   None    Shift=    0.000
 RMSDP=4.15D-07 MaxDP=6.92D-05 DE=-2.69D-07 OVMax= 2.95D-04

 Cycle  15  Pass 1  IDiag  1:
 RMSU=  1.52D-07    CP:  4.62D-01  4.57D-03  6.89D-01  6.54D-01  1.04D+00
                    CP:  8.44D-01  1.07D+00  1.25D+00  1.53D+00  1.94D+00
                    CP:  1.53D+00  1.93D+00  1.94D+00  1.35D+00
 E= -4276.03803530649     Delta-E=       -0.000000065978 Rises=F Damp=F
 DIIS: error= 7.87D-07 at cycle  15 NSaved=  15.
 NSaved=15 IEnMin=15 EnMin= -4276.03803530649     IErMin=15 ErrMin= 7.87D-07
 ErrMax= 7.87D-07  0.00D+00 EMaxC= 1.00D-01 BMatC= 2.45D-09 BMatP= 1.86D-08
 IDIUse=1 WtCom= 1.00D+00 WtEn= 0.00D+00
 Coeff-Com:  0.261D-06-0.639D-06-0.105D-04-0.155D-04 0.162D-03 0.239D-03
 Coeff-Com:  0.479D-03 0.572D-03 0.170D-02-0.197D-02-0.203D-01-0.802D-01
 Coeff-Com:  0.203D-01 0.249D+00 0.831D+00
 Coeff:      0.261D-06-0.639D-06-0.105D-04-0.155D-04 0.162D-03 0.239D-03
 Coeff:      0.479D-03 0.572D-03 0.170D-02-0.197D-02-0.203D-01-0.802D-01
 Coeff:      0.203D-01 0.249D+00 0.831D+00
 Gap=     0.233 Goal=   None    Shift=    0.000
 RMSDP=1.78D-07 MaxDP=3.40D-05 DE=-6.60D-08 OVMax= 1.27D-04

 Cycle  16  Pass 1  IDiag  1:
 RMSU=  6.53D-08    CP:  4.62D-01  4.57D-03  6.89D-01  6.54D-01  1.04D+00
                    CP:  8.44D-01  1.07D+00  1.25D+00  1.53D+00  1.95D+00
                    CP:  1.55D+00  1.99D+00  2.09D+00  1.60D+00  1.42D+00
 E= -4276.03803531719     Delta-E=       -0.000000010703 Rises=F Damp=F
 DIIS: error= 3.34D-07 at cycle  16 NSaved=  16.
 NSaved=16 IEnMin=16 EnMin= -4276.03803531719     IErMin=16 ErrMin= 3.34D-07
 ErrMax= 3.34D-07  0.00D+00 EMaxC= 1.00D-01 BMatC= 5.51D-10 BMatP= 2.45D-09
 IDIUse=1 WtCom= 1.00D+00 WtEn= 0.00D+00
 Coeff-Com: -0.986D-06 0.143D-05-0.480D-05-0.258D-05-0.503D-04-0.751D-05
 Coeff-Com:  0.131D-03-0.239D-03-0.198D-02 0.420D-02 0.158D-01-0.638D-02
 Coeff-Com: -0.863D-01-0.810D-01 0.282D+00 0.874D+00
 Coeff:     -0.986D-06 0.143D-05-0.480D-05-0.258D-05-0.503D-04-0.751D-05
 Coeff:      0.131D-03-0.239D-03-0.198D-02 0.420D-02 0.158D-01-0.638D-02
 Coeff:     -0.863D-01-0.810D-01 0.282D+00 0.874D+00
 Gap=     0.233 Goal=   None    Shift=    0.000
 RMSDP=9.96D-08 MaxDP=1.39D-05 DE=-1.07D-08 OVMax= 6.38D-05

 Cycle  17  Pass 1  IDiag  1:
 RMSU=  5.24D-08    CP:  4.62D-01  4.57D-03  6.89D-01  6.54D-01  1.04D+00
                    CP:  8.44D-01  1.07D+00  1.25D+00  1.53D+00  1.95D+00
                    CP:  1.55D+00  2.01D+00  2.17D+00  1.74D+00  1.68D+00
                    CP:  1.48D+00
 E= -4276.03803532033     Delta-E=       -0.000000003132 Rises=F Damp=F
 DIIS: error= 1.41D-07 at cycle  17 NSaved=  17.
 NSaved=17 IEnMin=17 EnMin= -4276.03803532033     IErMin=17 ErrMin= 1.41D-07
 ErrMax= 1.41D-07  0.00D+00 EMaxC= 1.00D-01 BMatC= 1.01D-10 BMatP= 5.51D-10
 IDIUse=1 WtCom= 1.00D+00 WtEn= 0.00D+00
 Coeff-Com: -0.652D-06 0.699D-06-0.294D-07 0.203D-05-0.532D-04-0.595D-04
 Coeff-Com: -0.849D-04-0.108D-03-0.652D-03 0.184D-02 0.831D-02 0.102D-01
 Coeff-Com: -0.301D-01-0.701D-01-0.780D-01 0.263D+00 0.896D+00
 Coeff:     -0.652D-06 0.699D-06-0.294D-07 0.203D-05-0.532D-04-0.595D-04
 Coeff:     -0.849D-04-0.108D-03-0.652D-03 0.184D-02 0.831D-02 0.102D-01
 Coeff:     -0.301D-01-0.701D-01-0.780D-01 0.263D+00 0.896D+00
 Gap=     0.233 Goal=   None    Shift=    0.000
 RMSDP=7.42D-08 MaxDP=6.31D-06 DE=-3.13D-09 OVMax= 2.69D-05

 Cycle  18  Pass 1  IDiag  1:
 RMSU=  4.33D-08    CP:  4.62D-01  4.57D-03  6.89D-01  6.54D-01  1.04D+00
                    CP:  8.44D-01  1.07D+00  1.25D+00  1.53D+00  1.95D+00
                    CP:  1.56D+00  2.01D+00  2.20D+00  1.78D+00  1.82D+00
                    CP:  1.97D+00  1.73D+00
 E= -4276.03803531925     Delta-E=        0.000000001077 Rises=F Damp=F
 DIIS: error= 3.60D-08 at cycle  18 NSaved=  18.
 NSaved=18 IEnMin=17 EnMin= -4276.03803532033     IErMin=18 ErrMin= 3.60D-08
 ErrMax= 3.60D-08  0.00D+00 EMaxC= 1.00D-01 BMatC= 1.78D-11 BMatP= 1.01D-10
 IDIUse=1 WtCom= 1.00D+00 WtEn= 0.00D+00
 Coeff-Com: -0.145D-06 0.202D-06 0.721D-06 0.105D-05-0.103D-04-0.217D-04
 Coeff-Com: -0.702D-04 0.392D-04 0.289D-03-0.930D-04-0.446D-03 0.235D-02
 Coeff-Com:  0.694D-02-0.290D-02-0.647D-01-0.618D-01 0.239D+00 0.882D+00
 Coeff:     -0.145D-06 0.202D-06 0.721D-06 0.105D-05-0.103D-04-0.217D-04
 Coeff:     -0.702D-04 0.392D-04 0.289D-03-0.930D-04-0.446D-03 0.235D-02
 Coeff:      0.694D-02-0.290D-02-0.647D-01-0.618D-01 0.239D+00 0.882D+00
 Gap=     0.233 Goal=   None    Shift=    0.000
 RMSDP=7.92D-08 MaxDP=5.50D-06 DE= 1.08D-09 OVMax= 8.27D-06

 Cycle  19  Pass 1  IDiag  1:
 RMSU=  4.16D-08    CP:  4.62D-01  4.57D-03  6.89D-01  6.54D-01  1.04D+00
                    CP:  8.44D-01  1.07D+00  1.25D+00  1.53D+00  1.95D+00
                    CP:  1.56D+00  2.01D+00  2.21D+00  1.79D+00  1.88D+00
                    CP:  2.30D+00  2.58D+00  2.01D+00
 E= -4276.03803532056     Delta-E=       -0.000000001313 Rises=F Damp=F
 DIIS: error= 4.55D-08 at cycle  19 NSaved=  19.
 NSaved=19 IEnMin=19 EnMin= -4276.03803532056     IErMin=18 ErrMin= 3.60D-08
 ErrMax= 4.55D-08  0.00D+00 EMaxC= 1.00D-01 BMatC= 5.72D-12 BMatP= 1.78D-11
 IDIUse=1 WtCom= 1.00D+00 WtEn= 0.00D+00
 Coeff-Com:  0.957D-08 0.574D-08 0.323D-06 0.303D-06 0.520D-05 0.198D-05
 Coeff-Com: -0.190D-04 0.237D-04 0.198D-03-0.283D-03-0.137D-02-0.105D-02
 Coeff-Com:  0.749D-02 0.105D-01-0.134D-01-0.701D-01-0.670D-01 0.363D+00
 Coeff-Com:  0.772D+00
 Coeff:      0.957D-08 0.574D-08 0.323D-06 0.303D-06 0.520D-05 0.198D-05
 Coeff:     -0.190D-04 0.237D-04 0.198D-03-0.283D-03-0.137D-02-0.105D-02
 Coeff:      0.749D-02 0.105D-01-0.134D-01-0.701D-01-0.670D-01 0.363D+00
 Coeff:      0.772D+00
 Gap=     0.233 Goal=   None    Shift=    0.000
 RMSDP=1.01D-07 MaxDP=7.52D-06 DE=-1.31D-09 OVMax= 3.56D-06

 Cycle  20  Pass 1  IDiag  1:
 RMSU=  4.66D-08    CP:  4.62D-01  4.57D-03  6.89D-01  6.54D-01  1.04D+00
                    CP:  8.44D-01  1.07D+00  1.25D+00  1.53D+00  1.95D+00
                    CP:  1.56D+00  2.01D+00  2.21D+00  1.80D+00  1.93D+00
                    CP:  2.65D+00  3.00D+00  3.00D+00  2.25D+00
 E= -4276.03803531890     Delta-E=        0.000000001666 Rises=F Damp=F
 DIIS: error= 6.16D-08 at cycle  20 NSaved=  20.
 NSaved=20 IEnMin=19 EnMin= -4276.03803532056     IErMin=18 ErrMin= 3.60D-08
 ErrMax= 6.16D-08  0.00D+00 EMaxC= 1.00D-01 BMatC= 3.94D-12 BMatP= 5.72D-12
 IDIUse=1 WtCom= 1.00D+00 WtEn= 0.00D+00
 Coeff-Com:  0.945D-08 0.383D-08 0.235D-06 0.216D-06 0.363D-05 0.154D-05
 Coeff-Com: -0.127D-04 0.166D-04 0.127D-03-0.190D-03-0.907D-03-0.723D-03
 Coeff-Com:  0.496D-02 0.702D-02-0.824D-02-0.455D-01-0.469D-01 0.231D+00
 Coeff-Com:  0.510D+00 0.349D+00
 Coeff:      0.945D-08 0.383D-08 0.235D-06 0.216D-06 0.363D-05 0.154D-05
 Coeff:     -0.127D-04 0.166D-04 0.127D-03-0.190D-03-0.907D-03-0.723D-03
 Coeff:      0.496D-02 0.702D-02-0.824D-02-0.455D-01-0.469D-01 0.231D+00
 Coeff:      0.510D+00 0.349D+00
 Gap=     0.233 Goal=   None    Shift=    0.000
 RMSDP=5.48D-08 MaxDP=3.92D-06 DE= 1.67D-09 OVMax= 4.55D-07

 Cycle  21  Pass 1  IDiag  1:
 Restarting incremental Fock formation.
 E= -4276.03803531695     Delta-E=        0.000000001943 Rises=F Damp=F
 DIIS: error= 2.21D-07 at cycle  21 NSaved=  20.
 NSaved=20 IEnMin=18 EnMin= -4276.03803532056     IErMin=17 ErrMin= 3.60D-08
 ErrMax= 2.21D-07  0.00D+00 EMaxC= 1.00D-01 BMatC= 1.05D-10 BMatP= 3.94D-12
 IDIUse=1 WtCom= 1.00D+00 WtEn= 0.00D+00
 Coeff-Com:  0.159D-07 0.210D-06 0.183D-06 0.367D-05 0.201D-05-0.101D-04
 Coeff-Com:  0.143D-04 0.109D-03-0.176D-03-0.826D-03-0.708D-03 0.445D-02
 Coeff-Com:  0.655D-02-0.629D-02-0.409D-01-0.486D-01 0.194D+00 0.460D+00
 Coeff-Com:  0.363D+00 0.697D-01
 Coeff:      0.159D-07 0.210D-06 0.183D-06 0.367D-05 0.201D-05-0.101D-04
 Coeff:      0.143D-04 0.109D-03-0.176D-03-0.826D-03-0.708D-03 0.445D-02
 Coeff:      0.655D-02-0.629D-02-0.409D-01-0.486D-01 0.194D+00 0.460D+00
 Coeff:      0.363D+00 0.697D-01
 Gap=     0.233 Goal=   None    Shift=    0.000
 RMSDP=4.65D-08 MaxDP=4.52D-06 DE= 1.94D-09 OVMax= 2.14D-07

 Cycle  22  Pass 1  IDiag  1:
 RMSU=  4.65D-08    CP:  1.00D+00
 E= -4276.03803531622     Delta-E=        0.000000000739 Rises=F Damp=F
 DIIS: error= 2.08D-07 at cycle  22 NSaved=  20.
 NSaved=20 IEnMin=17 EnMin= -4276.03803532056     IErMin=16 ErrMin= 3.60D-08
 ErrMax= 2.08D-07  0.00D+00 EMaxC= 1.00D-01 BMatC= 9.30D-11 BMatP= 3.94D-12
 IDIUse=1 WtCom= 1.00D+00 WtEn= 0.00D+00
 Coeff-Com:  0.175D-06 0.160D-06 0.334D-05 0.188D-05-0.882D-05 0.132D-04
 Coeff-Com:  0.978D-04-0.153D-03-0.740D-03-0.642D-03 0.388D-02 0.577D-02
 Coeff-Com: -0.505D-02-0.355D-01-0.442D-01 0.163D+00 0.405D+00 0.388D+00
 Coeff-Com: -0.845D+00 0.966D+00
 Coeff:      0.175D-06 0.160D-06 0.334D-05 0.188D-05-0.882D-05 0.132D-04
 Coeff:      0.978D-04-0.153D-03-0.740D-03-0.642D-03 0.388D-02 0.577D-02
 Coeff:     -0.505D-02-0.355D-01-0.442D-01 0.163D+00 0.405D+00 0.388D+00
 Coeff:     -0.845D+00 0.966D+00
 Gap=     0.233 Goal=   None    Shift=    0.000
 RMSDP=5.95D-08 MaxDP=5.31D-06 DE= 7.39D-10 OVMax= 2.44D-07

 Cycle  23  Pass 1  IDiag  1:
 RMSU=  4.56D-08    CP:  1.00D+00  1.82D+00
 E= -4276.03803531583     Delta-E=        0.000000000389 Rises=F Damp=F
 DIIS: error= 1.98D-07 at cycle  23 NSaved=  20.
 NSaved=20 IEnMin=16 EnMin= -4276.03803532056     IErMin=15 ErrMin= 3.60D-08
 ErrMax= 1.98D-07  0.00D+00 EMaxC= 1.00D-01 BMatC= 8.72D-11 BMatP= 3.94D-12
 IDIUse=1 WtCom= 1.00D+00 WtEn= 0.00D+00
 Coeff-Com:  0.730D-08 0.330D-05 0.300D-05-0.580D-05 0.550D-05 0.739D-04
 Coeff-Com: -0.791D-04-0.576D-03-0.838D-03 0.293D-02 0.530D-02-0.185D-02
 Coeff-Com: -0.295D-01-0.450D-01 0.133D+00 0.371D+00 0.425D+00-0.797D+00
 Coeff-Com:  0.235D+00 0.702D+00
 Coeff:      0.730D-08 0.330D-05 0.300D-05-0.580D-05 0.550D-05 0.739D-04
 Coeff:     -0.791D-04-0.576D-03-0.838D-03 0.293D-02 0.530D-02-0.185D-02
 Coeff:     -0.295D-01-0.450D-01 0.133D+00 0.371D+00 0.425D+00-0.797D+00
 Coeff:      0.235D+00 0.702D+00
 Gap=     0.233 Goal=   None    Shift=    0.000
 RMSDP=5.06D-08 MaxDP=3.91D-06 DE= 3.89D-10 OVMax= 1.55D-07

 Cycle  24  Pass 1  IDiag  1:
 RMSU=  3.12D-08    CP:  1.00D+00  2.44D+00  1.61D+00
 E= -4276.03803531313     Delta-E=        0.000000002696 Rises=F Damp=F
 DIIS: error= 1.92D-07 at cycle  24 NSaved=  20.
 NSaved=20 IEnMin=15 EnMin= -4276.03803532056     IErMin=14 ErrMin= 3.60D-08
 ErrMax= 1.92D-07  0.00D+00 EMaxC= 1.00D-01 BMatC= 8.51D-11 BMatP= 3.94D-12
 IDIUse=1 WtCom= 1.00D+00 WtEn= 0.00D+00
 Coeff-Com:  0.332D-05 0.301D-05-0.550D-05 0.612D-05 0.737D-04-0.843D-04
 Coeff-Com: -0.583D-03-0.827D-03 0.295D-02 0.531D-02-0.180D-02-0.295D-01
 Coeff-Com: -0.452D-01 0.131D+00 0.368D+00 0.433D+00-0.692D+00 0.109D+00
 Coeff-Com:  0.431D+00 0.291D+00
 Coeff:      0.332D-05 0.301D-05-0.550D-05 0.612D-05 0.737D-04-0.843D-04
 Coeff:     -0.583D-03-0.827D-03 0.295D-02 0.531D-02-0.180D-02-0.295D-01
 Coeff:     -0.452D-01 0.131D+00 0.368D+00 0.433D+00-0.692D+00 0.109D+00
 Coeff:      0.431D+00 0.291D+00
 Gap=     0.233 Goal=   None    Shift=    0.000
 RMSDP=1.99D-08 MaxDP=1.45D-06 DE= 2.70D-09 OVMax= 3.29D-08

 Cycle  25  Pass 1  IDiag  1:
 RMSU=  1.53D-08    CP:  1.00D+00  2.48D+00  1.82D+00  1.26D+00
 E= -4276.03803531762     Delta-E=       -0.000000004493 Rises=F Damp=F
 DIIS: error= 1.98D-07 at cycle  25 NSaved=  20.
 NSaved=20 IEnMin=14 EnMin= -4276.03803532056     IErMin=13 ErrMin= 3.60D-08
 ErrMax= 1.98D-07  0.00D+00 EMaxC= 1.00D-01 BMatC= 8.61D-11 BMatP= 3.94D-12
 IDIUse=1 WtCom= 1.00D+00 WtEn= 0.00D+00
 Coeff-Com: -0.386D-06-0.736D-05-0.666D-06 0.219D-04 0.223D-05-0.774D-04
 Coeff-Com: -0.194D-03 0.132D-02 0.193D-02-0.418D-02-0.185D-01-0.206D-01
 Coeff-Com:  0.120D+00 0.317D+00 0.465D+00-0.706D+00 0.121D+00 0.435D+00
 Coeff-Com:  0.248D+00 0.404D-01
 Coeff:     -0.386D-06-0.736D-05-0.666D-06 0.219D-04 0.223D-05-0.774D-04
 Coeff:     -0.194D-03 0.132D-02 0.193D-02-0.418D-02-0.185D-01-0.206D-01
 Coeff:      0.120D+00 0.317D+00 0.465D+00-0.706D+00 0.121D+00 0.435D+00
 Coeff:      0.248D+00 0.404D-01
 Gap=     0.233 Goal=   None    Shift=    0.000
 RMSDP=3.48D-09 MaxDP=5.18D-07 DE=-4.49D-09 OVMax= 1.45D-07

 Error on total polarization charges =  0.05983
 SCF Done:  E(RwB97XD) =  -4276.03803532     A.U. after   25 cycles
            NFock= 25  Conv=0.35D-08     -V/T= 2.0229
 KE= 4.180440132473D+03 PE=-3.455849212385D+04 EE= 1.383548091250D+04
 SMD-CDS (non-electrostatic) energy       (kcal/mol) =     -12.71
 (included in total energy above)
 Leave Link  502 at Tue Apr  9 21:39:02 2024, MaxMem=  2147483648 cpu:    167420.2
 (Enter /cluster/apps/gaussian/g09/l601.exe)
 Copying SCF densities to generalized density rwf, IOpCl= 0 IROHF=0.

 **********************************************************************

            Population analysis using the SCF density.

 **********************************************************************

 Orbital symmetries:
       Occupied  (A) (A) (A) (A) (A) (A) (A) (A) (A) (A) (A) (A)
                 (A) (A) (A) (A) (A) (A) (A) (A) (A) (A) (A) (A)
                 (A) (A) (A) (A) (A) (A) (A) (A) (A) (A) (A) (A)
                 (A) (A) (A) (A) (A) (A) (A) (A) (A) (A) (A) (A)
                 (A) (A) (A) (A) (A) (A) (A) (A) (A) (A) (A) (A)
                 (A) (A) (A) (A) (A) (A) (A) (A) (A) (A) (A) (A)
                 (A) (A) (A) (A) (A) (A) (A) (A) (A) (A) (A) (A)
                 (A) (A) (A) (A) (A) (A) (A) (A) (A) (A) (A) (A)
                 (A) (A) (A) (A) (A) (A) (A) (A) (A) (A) (A) (A)
                 (A) (A) (A) (A) (A) (A) (A) (A) (A) (A) (A) (A)
                 (A) (A) (A) (A) (A) (A) (A) (A) (A) (A) (A) (A)
                 (A) (A) (A) (A) (A) (A) (A) (A) (A) (A) (A) (A)
                 (A) (A) (A) (A) (A) (A) (A) (A) (A) (A) (A) (A)
                 (A) (A) (A) (A) (A) (A) (A) (A) (A) (A) (A) (A)
                 (A) (A) (A) (A) (A) (A) (A) (A) (A) (A) (A) (A)
                 (A) (A) (A) (A) (A) (A) (A) (A) (A) (A) (A) (A)
                 (A) (A) (A) (A) (A) (A) (A) (A) (A) (A) (A) (A)
                 (A) (A) (A) (A) (A) (A) (A) (A) (A) (A) (A) (A)
                 (A) (A) (A) (A) (A) (A) (A) (A) (A) (A) (A) (A)
                 (A) (A) (A) (A) (A) (A) (A) (A) (A) (A) (A) (A)
                 (A) (A)
       Virtual   (A) (A) (A) (A) (A) (A) (A) (A) (A) (A) (A) (A)
                 (A) (A) (A) (A) (A) (A) (A) (A) (A) (A) (A) (A)
                 (A) (A) (A) (A) (A) (A) (A) (A) (A) (A) (A) (A)
                 (A) (A) (A) (A) (A) (A) (A) (A) (A) (A) (A) (A)
                 (A) (A) (A) (A) (A) (A) (A) (A) (A) (A) (A) (A)
                 (A) (A) (A) (A) (A) (A) (A) (A) (A) (A) (A) (A)
                 (A) (A) (A) (A) (A) (A) (A) (A) (A) (A) (A) (A)
                 (A) (A) (A) (A) (A) (A) (A) (A) (A) (A) (A) (A)
                 (A) (A) (A) (A) (A) (A) (A) (A) (A) (A) (A) (A)
                 (A) (A) (A) (A) (A) (A) (A) (A) (A) (A) (A) (A)
                 (A) (A) (A) (A) (A) (A) (A) (A) (A) (A) (A) (A)
                 (A) (A) (A) (A) (A) (A) (A) (A) (A) (A) (A) (A)
                 (A) (A) (A) (A) (A) (A) (A) (A) (A) (A) (A) (A)
                 (A) (A) (A) (A) (A) (A) (A) (A) (A) (A) (A) (A)
                 (A) (A) (A) (A) (A) (A) (A) (A) (A) (A) (A) (A)
                 (A) (A) (A) (A) (A) (A) (A) (A) (A) (A) (A) (A)
                 (A) (A) (A) (A) (A) (A) (A) (A) (A) (A) (A) (A)
                 (A) (A) (A) (A) (A) (A) (A) (A) (A) (A) (A) (A)
                 (A) (A) (A) (A) (A) (A) (A) (A) (A) (A) (A) (A)
                 (A) (A) (A) (A) (A) (A) (A) (A) (A) (A) (A) (A)
                 (A) (A) (A) (A) (A) (A) (A) (A) (A) (A) (A) (A)
                 (A) (A) (A) (A) (A) (A) (A) (A) (A) (A) (A) (A)
                 (A) (A) (A) (A) (A) (A) (A) (A) (A) (A) (A) (A)
                 (A) (A) (A) (A) (A) (A) (A) (A) (A) (A) (A) (A)
                 (A) (A) (A) (A) (A) (A) (A) (A) (A) (A) (A) (A)
                 (A) (A) (A) (A) (A) (A) (A) (A) (A) (A) (A) (A)
                 (A) (A) (A) (A) (A) (A) (A) (A) (A) (A) (A) (A)
                 (A) (A) (A) (A) (A) (A) (A) (A) (A) (A) (A) (A)
                 (A) (A) (A) (A) (A) (A) (A) (A) (A) (A) (A) (A)
                 (A) (A) (A) (A) (A) (A) (A) (A) (A) (A) (A) (A)
                 (A) (A) (A) (A) (A) (A) (A) (A) (A) (A) (A) (A)
                 (A) (A) (A) (A) (A) (A) (A) (A) (A) (A) (A) (A)
                 (A) (A) (A) (A) (A) (A) (A) (A) (A) (A) (A) (A)
                 (A) (A) (A) (A) (A) (A) (A) (A) (A) (A) (A) (A)
                 (A) (A) (A) (A) (A) (A) (A) (A) (A) (A) (A) (A)
                 (A) (A) (A) (A) (A) (A) (A) (A) (A) (A) (A) (A)
                 (A) (A) (A) (A) (A) (A) (A) (A) (A) (A) (A) (A)
                 (A) (A) (A) (A) (A) (A) (A) (A) (A) (A) (A) (A)
                 (A) (A) (A) (A) (A) (A) (A) (A) (A) (A) (A) (A)
                 (A) (A) (A) (A) (A) (A) (A) (A) (A) (A) (A) (A)
                 (A) (A) (A) (A) (A) (A) (A) (A) (A) (A) (A) (A)
                 (A) (A) (A) (A) (A) (A) (A) (A) (A) (A) (A) (A)
                 (A) (A) (A) (A) (A) (A) (A) (A) (A) (A) (A) (A)
                 (A) (A) (A) (A) (A) (A) (A) (A) (A) (A) (A) (A)
                 (A) (A) (A) (A) (A) (A) (A) (A) (A) (A) (A) (A)
                 (A) (A) (A) (A) (A) (A) (A) (A) (A) (A) (A) (A)
                 (A) (A) (A) (A) (A) (A) (A) (A) (A) (A) (A) (A)
                 (A) (A) (A) (A) (A) (A) (A) (A) (A) (A) (A) (A)
                 (A) (A) (A) (A) (A) (A) (A) (A) (A) (A) (A) (A)
                 (A) (A) (A) (A) (A) (A) (A) (A) (A) (A) (A) (A)
                 (A) (A) (A) (A) (A) (A) (A) (A) (A) (A) (A) (A)
                 (A) (A) (A) (A) (A) (A) (A) (A) (A) (A) (A) (A)
                 (A) (A) (A) (A) (A) (A) (A) (A) (A) (A) (A) (A)
                 (A) (A) (A) (A) (A) (A) (A) (A) (A) (A) (A) (A)
                 (A) (A) (A) (A) (A) (A) (A) (A) (A) (A) (A) (A)
                 (A) (A) (A) (A) (A) (A) (A) (A) (A) (A) (A) (A)
                 (A) (A) (A) (A) (A) (A) (A) (A) (A) (A) (A) (A)
                 (A) (A) (A) (A) (A) (A) (A) (A) (A) (A) (A) (A)
                 (A) (A) (A) (A) (A) (A) (A) (A) (A) (A) (A) (A)
                 (A) (A) (A) (A) (A) (A) (A) (A) (A) (A) (A) (A)
                 (A) (A) (A) (A) (A) (A) (A) (A) (A) (A) (A) (A)
                 (A) (A) (A) (A) (A) (A) (A) (A) (A) (A) (A) (A)
                 (A) (A) (A) (A) (A) (A) (A) (A) (A) (A) (A) (A)
                 (A) (A) (A) (A) (A) (A) (A) (A) (A) (A) (A) (A)
                 (A) (A) (A) (A) (A) (A) (A) (A) (A) (A) (A) (A)
                 (A) (A) (A) (A) (A) (A) (A) (A) (A) (A) (A) (A)
                 (A) (A) (A) (A) (A) (A) (A) (A) (A) (A) (A) (A)
                 (A) (A) (A) (A) (A) (A) (A) (A) (A) (A) (A) (A)
                 (A) (A) (A) (A) (A) (A) (A) (A) (A) (A) (A) (A)
                 (A) (A) (A) (A) (A) (A) (A) (A) (A) (A) (A) (A)
                 (A) (A) (A) (A) (A) (A) (A) (A) (A) (A) (A) (A)
                 (A) (A) (A) (A) (A) (A) (A) (A) (A) (A) (A) (A)
                 (A) (A) (A) (A) (A) (A) (A) (A) (A) (A) (A) (A)
                 (A) (A) (A) (A) (A) (A) (A) (A) (A) (A) (A) (A)
                 (A) (A) (A) (A) (A) (A) (A) (A) (A) (A) (A) (A)
                 (A) (A) (A) (A) (A) (A) (A) (A) (A) (A) (A) (A)
                 (A) (A) (A) (A) (A) (A) (A) (A) (A) (A) (A) (A)
                 (A) (A) (A) (A) (A) (A) (A) (A) (A) (A) (A) (A)
                 (A) (A) (A) (A) (A) (A) (A) (A) (A) (A) (A) (A)
                 (A) (A) (A) (A) (A) (A) (A) (A) (A) (A) (A) (A)
                 (A) (A) (A) (A) (A) (A) (A) (A) (A) (A) (A) (A)
                 (A) (A) (A) (A) (A) (A) (A) (A) (A) (A) (A) (A)
                 (A) (A) (A) (A) (A) (A) (A) (A) (A) (A) (A) (A)
                 (A) (A) (A) (A) (A) (A) (A) (A) (A) (A) (A) (A)
                 (A) (A) (A) (A) (A) (A) (A) (A) (A) (A) (A) (A)
                 (A) (A) (A) (A) (A) (A) (A) (A) (A) (A) (A) (A)
                 (A) (A) (A) (A) (A) (A) (A) (A) (A) (A) (A) (A)
                 (A) (A) (A) (A) (A) (A) (A) (A) (A) (A) (A) (A)
                 (A) (A) (A) (A) (A) (A) (A) (A) (A) (A) (A) (A)
                 (A) (A) (A) (A) (A) (A) (A) (A) (A) (A) (A) (A)
                 (A) (A) (A) (A) (A) (A) (A) (A) (A) (A) (A) (A)
                 (A) (A) (A) (A) (A) (A) (A) (A) (A) (A) (A) (A)
                 (A) (A) (A) (A) (A) (A) (A) (A) (A) (A) (A) (A)
                 (A) (A) (A) (A) (A) (A) (A) (A) (A) (A) (A) (A)
                 (A) (A) (A) (A) (A) (A) (A) (A) (A) (A) (A) (A)
                 (A) (A) (A) (A) (A) (A) (A) (A) (A) (A) (A) (A)
                 (A) (A) (A) (A) (A) (A) (A) (A) (A) (A) (A) (A)
                 (A) (A) (A) (A) (A) (A) (A) (A) (A) (A) (A) (A)
                 (A) (A) (A) (A) (A) (A) (A) (A) (A) (A) (A) (A)
                 (A) (A) (A) (A) (A) (A) (A) (A) (A) (A) (A) (A)
                 (A) (A) (A) (A) (A) (A) (A) (A) (A) (A) (A) (A)
                 (A) (A) (A) (A) (A) (A) (A) (A) (A) (A) (A) (A)
                 (A) (A) (A) (A) (A) (A) (A) (A) (A) (A) (A) (A)
                 (A) (A) (A) (A) (A) (A) (A) (A) (A) (A) (A) (A)
                 (A) (A) (A) (A) (A) (A) (A) (A) (A) (A) (A) (A)
                 (A) (A) (A) (A) (A) (A) (A) (A) (A) (A) (A) (A)
                 (A) (A) (A) (A) (A) (A) (A) (A) (A) (A) (A) (A)
                 (A) (A) (A) (A) (A) (A) (A) (A) (A) (A) (A) (A)
                 (A) (A) (A) (A) (A) (A) (A) (A) (A) (A) (A) (A)
                 (A) (A) (A) (A) (A) (A) (A) (A) (A) (A) (A) (A)
                 (A) (A) (A) (A) (A) (A) (A) (A) (A) (A) (A) (A)
                 (A) (A) (A) (A) (A) (A) (A) (A) (A) (A) (A) (A)
                 (A) (A) (A) (A) (A) (A) (A) (A) (A) (A) (A) (A)
                 (A) (A) (A) (A) (A) (A) (A) (A) (A) (A) (A) (A)
                 (A) (A) (A) (A) (A) (A) (A) (A) (A) (A) (A) (A)
                 (A) (A) (A) (A) (A) (A) (A) (A) (A) (A) (A) (A)
                 (A) (A) (A) (A) (A) (A) (A) (A) (A) (A) (A) (A)
                 (A) (A) (A) (A) (A) (A) (A) (A) (A) (A) (A) (A)
                 (A) (A) (A) (A) (A) (A) (A) (A) (A) (A) (A) (A)
                 (A) (A) (A) (A) (A) (A) (A) (A) (A) (A) (A) (A)
                 (A) (A) (A) (A) (A) (A) (A) (A) (A) (A) (A) (A)
                 (A) (A) (A) (A) (A) (A) (A) (A) (A) (A) (A) (A)
                 (A) (A) (A) (A) (A) (A) (A) (A) (A) (A) (A) (A)
                 (A) (A) (A) (A) (A) (A) (A) (A) (A) (A) (A) (A)
                 (A) (A) (A) (A) (A) (A) (A) (A) (A) (A) (A) (A)
[...]
 Alpha virt. eigenvalues --    3.52232   3.52702   3.52835   3.53030   3.53470
 Alpha virt. eigenvalues --    3.53830   3.53878   3.54235   3.54371   3.54612
 Alpha virt. eigenvalues --    3.54839   3.55101   3.55339   3.55493   3.55780
 Alpha virt. eigenvalues --    3.55957   3.56075   3.56321   3.56532   3.56834
 Alpha virt. eigenvalues --    3.57044   3.57171   3.57333   3.57429   3.57816
 Alpha virt. eigenvalues --    3.57897   3.58315   3.58397   3.58560   3.58998
 Alpha virt. eigenvalues --    3.59189   3.59368   3.59550   3.59797   3.60350
 Alpha virt. eigenvalues --    3.60433   3.60700   3.61055   3.61187   3.61298
 Alpha virt. eigenvalues --    3.61436   3.61702   3.61975   3.62437   3.62662
 Alpha virt. eigenvalues --    3.62821   3.62945   3.63152   3.63450   3.63606
 Alpha virt. eigenvalues --    3.63687   3.63900   3.64235   3.64294   3.64629
 Alpha virt. eigenvalues --    3.64718   3.65056   3.65300   3.65788   3.65946
 Alpha virt. eigenvalues --    3.66017   3.66601   3.67092   3.67205   3.67339
 Alpha virt. eigenvalues --    3.67618   3.67958   3.68133   3.68726   3.68832
 Alpha virt. eigenvalues --    3.68924   3.69329   3.69513   3.69735   3.70723
 Alpha virt. eigenvalues --    3.71041   3.71109   3.71602   3.71892   3.72083
 Alpha virt. eigenvalues --    3.72230   3.72764   3.73271   3.73434   3.74031
 Alpha virt. eigenvalues --    3.74247   3.74519   3.74760   3.74791   3.75232
 Alpha virt. eigenvalues --    3.76200   3.76419   3.76517   3.76871   3.77332
 Alpha virt. eigenvalues --    3.77736   3.78151   3.78842   3.79138   3.79298
 Alpha virt. eigenvalues --    3.79717   3.79895   3.80756   3.80848   3.81026
 Alpha virt. eigenvalues --    3.81350   3.81586   3.81955   3.82171   3.82635
 Alpha virt. eigenvalues --    3.82975   3.83170   3.83764   3.84046   3.84390
 Alpha virt. eigenvalues --    3.84923   3.85091   3.85180   3.85654   3.86176
 Alpha virt. eigenvalues --    3.86411   3.86883   3.87101   3.87508   3.87817
 Alpha virt. eigenvalues --    3.88341   3.88998   3.89178   3.89953   3.90266
 Alpha virt. eigenvalues --    3.90737   3.91446   3.91934   3.92425   3.93189
 Alpha virt. eigenvalues --    3.93745   3.95097   3.95483   3.95955   3.97109
 Alpha virt. eigenvalues --    3.98504   3.98826   3.99838   4.00255   4.00908
 Alpha virt. eigenvalues --    4.01921   4.01954   4.02172   4.02634   4.02832
 Alpha virt. eigenvalues --    4.03626   4.04036   4.04427   4.04748   4.04994
 Alpha virt. eigenvalues --    4.05523   4.05675   4.05888   4.06634   4.07270
 Alpha virt. eigenvalues --    4.07800   4.08175   4.08946   4.09669   4.10969
 Alpha virt. eigenvalues --    4.11413   4.12446   4.12905   4.13318   4.13824
 Alpha virt. eigenvalues --    4.14116   4.14666   4.14740   4.15315   4.15486
 Alpha virt. eigenvalues --    4.16351   4.16467   4.16829   4.17055   4.17627
 Alpha virt. eigenvalues --    4.17991   4.18257   4.18823   4.19257   4.19846
 Alpha virt. eigenvalues --    4.20093   4.20491   4.20740   4.21087   4.21260
 Alpha virt. eigenvalues --    4.21935   4.22117   4.22230   4.22870   4.23032
 Alpha virt. eigenvalues --    4.23222   4.23601   4.23755   4.24272   4.24609
 Alpha virt. eigenvalues --    4.24702   4.25208   4.25719   4.26269   4.26753
 Alpha virt. eigenvalues --    4.27147   4.27354   4.27460   4.28080   4.28458
 Alpha virt. eigenvalues --    4.28554   4.28763   4.29031   4.29423   4.29641
 Alpha virt. eigenvalues --    4.29692   4.29868   4.30219   4.30275   4.30650
 Alpha virt. eigenvalues --    4.30738   4.30828   4.31033   4.31339   4.31504
 Alpha virt. eigenvalues --    4.31576   4.31739   4.31988   4.32275   4.32574
 Alpha virt. eigenvalues --    4.32927   4.33172   4.33515   4.33759   4.33969
 Alpha virt. eigenvalues --    4.34484   4.35253   4.35570   4.35810   4.36098
 Alpha virt. eigenvalues --    4.36287   4.36723   4.36819   4.37160   4.37469
 Alpha virt. eigenvalues --    4.37823   4.38012   4.38567   4.38827   4.39074
 Alpha virt. eigenvalues --    4.39184   4.39443   4.39693   4.40174   4.40338
 Alpha virt. eigenvalues --    4.40596   4.40819   4.41164   4.41755   4.42073
 Alpha virt. eigenvalues --    4.42292   4.42827   4.43590   4.43941   4.44328
 Alpha virt. eigenvalues --    4.45040   4.45532   4.46014   4.46732   4.47274
 Alpha virt. eigenvalues --    4.47638   4.48330   4.48523   4.48951   4.49356
 Alpha virt. eigenvalues --    4.49562   4.50513   4.51055   4.52160   4.53632
 Alpha virt. eigenvalues --    4.53996   4.54211   4.54606   4.55125   4.55737
 Alpha virt. eigenvalues --    4.57879   4.58933   4.59437   4.60669   4.61526
 Alpha virt. eigenvalues --    4.63272   4.63927   4.65623   4.66204   4.68429
 Alpha virt. eigenvalues --    4.68873   4.69631   4.70250   4.71362   4.71635
 Alpha virt. eigenvalues --    4.72153   4.72559   4.73071   4.73228   4.73818
 Alpha virt. eigenvalues --    4.73927   4.74474   4.74753   4.74851   4.75302
 Alpha virt. eigenvalues --    4.75949   4.76058   4.77116   4.78240   4.78872
 Alpha virt. eigenvalues --    4.80386   4.81276   4.81606   4.82419   4.82707
 Alpha virt. eigenvalues --    4.83420   4.83922   4.84676   4.85123   4.85382
 Alpha virt. eigenvalues --    4.85782   4.86450   4.87754   4.88166   4.89168
 Alpha virt. eigenvalues --    4.89770   4.90046   4.91024   4.91883   4.93332
 Alpha virt. eigenvalues --    4.94866   4.95085   4.96035   4.96128   4.96249
 Alpha virt. eigenvalues --    4.97706   4.98348   4.98883   5.00402   5.01657
 Alpha virt. eigenvalues --    5.01900   5.02767   5.03666   5.03873   5.04153
 Alpha virt. eigenvalues --    5.04321   5.05572   5.05706   5.06415   5.06977
 Alpha virt. eigenvalues --    5.08207   5.10202   5.10831   5.12383   5.14453
 Alpha virt. eigenvalues --    5.17082   5.18219   5.18883   5.21418   5.23216
 Alpha virt. eigenvalues --    5.23830   5.24092   5.24328   5.24655   5.24718
 Alpha virt. eigenvalues --    5.24975   5.25064   5.25317   5.25500   5.25867
 Alpha virt. eigenvalues --    5.26140   5.26360   5.27083   5.27280   5.29526
 Alpha virt. eigenvalues --    5.29856   5.30144   5.30312   5.32479   5.32913
 Alpha virt. eigenvalues --    5.33663   5.35284   5.36561   5.36945   5.37179
 Alpha virt. eigenvalues --    5.37537   5.37845   5.38712   5.38886   5.41656
 Alpha virt. eigenvalues --    5.43360   5.43930   5.44831   5.45195   5.45326
 Alpha virt. eigenvalues --    5.46199   5.47143   5.49719   5.50385   5.50800
 Alpha virt. eigenvalues --    5.51367   5.52054   5.52101   5.53379   5.53927
 Alpha virt. eigenvalues --    5.54381   5.56597   5.60059   5.60654   5.62259
 Alpha virt. eigenvalues --    5.63354   5.64623   5.65290   5.65949   5.66297
 Alpha virt. eigenvalues --    5.66551   5.67520   5.68703   5.69321   5.70812
 Alpha virt. eigenvalues --    5.71278   5.72728   5.73790   5.74877   5.77223
 Alpha virt. eigenvalues --    5.80536   5.85956   5.88369   5.88915   5.94555
 Alpha virt. eigenvalues --    6.02786   6.11435   6.13339   6.16243   6.43641
 Alpha virt. eigenvalues --    6.47405   6.49810   6.50558   6.57362   6.63983
 Alpha virt. eigenvalues --    6.77723   6.81377   6.90662   6.91061   6.91956
 Alpha virt. eigenvalues --    6.93029   6.93523   6.93693   6.94410   6.94669
 Alpha virt. eigenvalues --    6.94863   6.95470   6.95763   6.96715   6.97468
 Alpha virt. eigenvalues --    7.00118   7.02132   7.04065   7.05701   7.08218
 Alpha virt. eigenvalues --    7.08438   7.13395   7.14209   7.17928   7.24087
 Alpha virt. eigenvalues --    7.27760   7.29428   7.29498   7.36587   7.38753
 Alpha virt. eigenvalues --    7.41585   7.48803   7.49169   7.53795   7.57123
 Alpha virt. eigenvalues --    7.62241   7.74386   7.76498   7.99042   8.03928
 Alpha virt. eigenvalues --    8.09886   8.13248   8.19032   8.20374   8.22887
 Alpha virt. eigenvalues --    8.39732   8.42530   8.45282   8.49954   8.56193
 Alpha virt. eigenvalues --    8.63817   8.66108   8.78778   8.79919   8.83949
 Alpha virt. eigenvalues --    8.89472   8.91073   8.95051   9.00422   9.02702
 Alpha virt. eigenvalues --    9.10766   9.13018   9.17945   9.20299   9.41515
 Alpha virt. eigenvalues --    9.52800   9.66122   9.85995  10.84469  10.86031
 Alpha virt. eigenvalues --   11.38672  16.37428  16.46602  22.13358  22.24004
 Alpha virt. eigenvalues --   22.28385  22.34333  22.40421  22.43113  22.52109
 Alpha virt. eigenvalues --   22.54450  22.57187  22.64936  22.69833  22.71058
 Alpha virt. eigenvalues --   22.72248  22.72915  22.73492  22.74429  22.75071
 Alpha virt. eigenvalues --   22.77104  22.78853  22.80569  22.81886  22.83934
 Alpha virt. eigenvalues --   22.85378  22.87168  22.88438  22.88624  22.89300
 Alpha virt. eigenvalues --   22.90925  22.92644  22.94478  22.94690  22.97822
 Alpha virt. eigenvalues --   23.00051  23.01472  23.01659  23.06441  23.06861
 Alpha virt. eigenvalues --   23.08091  23.09478  23.14530  23.16180  23.24075
 Alpha virt. eigenvalues --   23.26007  23.27347  23.28923  23.30453  23.34375
 Alpha virt. eigenvalues --   23.38523  23.52821  23.63527  23.86037  25.55068
 Alpha virt. eigenvalues --   32.86831  33.01465  43.91795  44.10726  44.43005
 Alpha virt. eigenvalues --   57.35150  57.53800  57.62687  57.76085 107.20227
          Condensed to atoms (all electrons):
 Mulliken charges:
               1
     1  C    0.291338
     2  C   -0.248754
     3  H    0.206765
     4  C   -0.210787
     5  H    0.146639
     6  C    0.377399
     7  C   -0.463915
     8  H    0.169548
     9  C   -0.000011
    10  C   -0.176815
    11  C    0.248139
    12  C    0.199801
    13  C    0.214032
    14  C    0.139590
    15  C    0.067568
    16  N   -0.275945
    17  S    0.797462
    18  O   -0.495512
    19  O   -0.475370
    20  C   -0.159467
    21  Cl  -0.112215
    22  H    0.203662
    23  H    0.209101
    24  F   -0.194186
    25  F   -0.200752
    26  F   -0.202661
    27  F   -0.213443
    28  O   -0.310422
    29  C   -0.231187
    30  H    0.134822
    31  H    0.133503
    32  H    0.156283
    33  P    0.309517
    34  C    0.096298
    35  C   -0.243932
    36  C   -0.166052
    37  C   -0.117965
    38  C   -0.232579
    39  C   -0.140237
    40  H    0.214882
    41  H    0.147532
    42  H    0.156682
    43  H    0.155044
    44  H    0.157197
    45  C    0.083191
    46  C   -0.226084
    47  C   -0.198438
    48  C   -0.121651
    49  C   -0.283274
    50  C    0.119241
    51  C    0.152276
    52  C   -0.276983
    53  C   -0.120306
    54  C   -0.225133
    55  C   -0.077900
    56  C   -0.196129
    57  P    0.385213
    58  C    0.145506
    59  C   -0.232400
    60  C   -0.158240
    61  C   -0.143522
    62  C   -0.171478
    63  C   -0.316981
    64  H    0.197828
    65  H    0.153455
    66  H    0.155360
    67  H    0.154044
    68  H    0.183059
    69  C   -0.084855
    70  C    0.028142
    71  C   -0.271847
    72  C   -0.098498
    73  C   -0.171289
    74  C   -0.217941
    75  H    0.172339
    76  C   -0.205668
    77  C   -0.184844
    78  C   -0.127053
    79  C   -0.161618
    80  C   -0.270659
    81  C    0.056133
    82  H    0.194444
    83  H    0.157713
    84  H    0.158827
    85  H    0.149205
    86  H    0.199525
    87  H    0.156559
    88  H    0.157875
    89  H    0.166603
    90  H    0.208064
    91  H    0.183685
    92  H    0.152204
    93  H    0.153049
    94  H    0.153575
    95  H    0.160266
    96  H    0.152840
    97  H    0.152063
    98  H    0.205986
    99  Pd  -0.366074
 Sum of Mulliken charges =   0.00000
 Mulliken charges with hydrogens summed into heavy atoms:
               1
     1  C    0.291338
     2  C   -0.041989
     4  C   -0.064149
     6  C    0.377399
     7  C   -0.294367
     9  C   -0.000011
    10  C   -0.176815
    11  C    0.248139
    12  C    0.199801
    13  C    0.214032
    14  C    0.139590
    15  C    0.067568
    16  N   -0.275945
    17  S    0.797462
    18  O   -0.495512
    19  O   -0.475370
    20  C    0.253296
    21  Cl  -0.112215
    24  F   -0.194186
    25  F   -0.200752
    26  F   -0.202661
    27  F   -0.213443
    28  O   -0.310422
    29  C    0.193422
    33  P    0.309517
    34  C    0.096298
    35  C   -0.086734
    36  C   -0.011008
    37  C    0.038716
    38  C   -0.085048
    39  C    0.074645
    45  C    0.083191
    46  C   -0.020098
    47  C   -0.046375
    48  C    0.031189
    49  C   -0.123009
    50  C    0.119241
    51  C    0.152276
    52  C   -0.123407
    53  C    0.032743
    54  C   -0.072930
    55  C    0.105784
    56  C   -0.196129
    57  P    0.385213
    58  C    0.145506
    59  C   -0.049341
    60  C   -0.004196
    61  C    0.011838
    62  C   -0.018022
    63  C   -0.119153
    69  C   -0.084855
    70  C    0.236206
    71  C   -0.105244
    72  C    0.059377
    73  C   -0.014731
    74  C   -0.045602
    76  C   -0.006143
    77  C   -0.035639
    78  C    0.031774
    79  C   -0.003905
    80  C   -0.076215
    81  C    0.056133
    99  Pd  -0.366074
 Electronic spatial extent (au):  <R**2>=          36891.2782
 Charge=              0.0000 electrons
 Dipole moment (field-independent basis, Debye):
    X=              5.0168    Y=              8.9854    Z=              3.2225  Tot=             10.7838
 Quadrupole moment (field-independent basis, Debye-Ang):
   XX=           -361.3322   YY=           -392.2342   ZZ=           -394.1339
   XY=            -13.8439   XZ=             -4.3196   YZ=            -13.8453
 Traceless Quadrupole moment (field-independent basis, Debye-Ang):
   XX=             21.2345   YY=             -9.6674   ZZ=            -11.5671
   XY=            -13.8439   XZ=             -4.3196   YZ=            -13.8453
 Octapole moment (field-independent basis, Debye-Ang**2):
  XXX=             18.4168  YYY=             16.9981  ZZZ=             44.0917  XYY=              9.8214
  XXY=             63.8123  XXZ=             -6.6302  XZZ=             41.8448  YZZ=            107.3082
  YYZ=             27.9713  XYZ=            -26.2345
 Hexadecapole moment (field-independent basis, Debye-Ang**3):
 XXXX=         -18961.4117 YYYY=         -16454.4761 ZZZZ=         -10844.8628 XXXY=            -73.1313
 XXXZ=           -503.5078 YYYX=           -582.2291 YYYZ=           -130.4041 ZZZX=             -8.5043
 ZZZY=           -124.1314 XXYY=          -5953.0603 XXZZ=          -5498.7833 YYZZ=          -4594.5875
 XXYZ=           -264.3948 YYXZ=            -14.0521 ZZXY=             56.5356
 N-N= 1.226653304356D+04 E-N=-3.455849212086D+04  KE= 4.180440132473D+03
 No NMR shielding tensors so no spin-rotation constants.
 Leave Link  601 at Tue Apr  9 21:39:06 2024, MaxMem=  2147483648 cpu:        21.7
 (Enter /cluster/apps/gaussian/g09/l9999.exe)
 1\1\GINC-EU-G5-037-3\SP\RwB97XD\GenECP\C50H36Cl1F4N1O3P2Pd1S1\SROEDIGE
 R\09-Apr-2024\0\\#p sp geom=allcheck scrf(solvent=dichloromethane,smd)
  wb97xd genecp temperature=313 integral(grid=ultrafine)\\title\\0,1\C,
 0,1.9497777127,0.1255685907,-0.9612018711\C,0,2.3195332876,-0.26198340
 6,-2.2701352114\H,0,1.6852408652,-0.0054993975,-3.1211135568\C,0,3.445
 5423013,-1.0485758656,-2.4444330253\H,0,3.7038204796,-1.4342308512,-3.
 432511152\C,0,4.2664291031,-1.4155601186,-1.3606080622\C,0,4.007535445
 2,-0.8943817218,-0.0957219023\H,0,4.6782705149,-1.0679379565,0.7446770
 997\C,0,2.8818036669,-0.0784165797,0.0939752396\C,0,2.5883593023,0.779
 8050799,1.2165097825\C,0,2.9866451133,0.6748875034,2.5481905608\C,0,2.
 4815342084,1.5484878675,3.5018835719\C,0,1.5829489051,2.5541781356,3.1
 306729984\C,0,1.1867737514,2.6959918403,1.8029301032\C,0,1.7043031455,
 1.8277423025,0.8392961765\N,0,1.2980251998,1.7645430068,-0.5028381547\
 S,0,1.5859961116,3.0216177741,-1.5681328581\O,0,0.9308141476,2.6366212
 491,-2.8101234351\O,0,1.3266186456,4.3065687917,-0.9426172223\C,0,3.37
 6924892,2.8856284461,-1.7856520098\Cl,0,3.9728108768,4.1472391873,-2.8
 56044671\H,0,3.590026669,1.8933881264,-2.2046880727\H,0,3.8247521266,2
 .9941126818,-0.7884916548\F,0,0.2571872364,3.5890714941,1.5177965646\F
 ,0,1.0561748467,3.3311623978,4.0649228752\F,0,2.7925446744,1.394128876
 ,4.7814646901\F,0,3.7805632858,-0.3154985001,2.9465642754\O,0,5.291595
 0037,-2.2548880374,-1.6514348085\C,0,6.1326105802,-2.6484388967,-0.609
 3005039\H,0,5.5761170836,-3.1606726966,0.1974095988\H,0,6.6754019611,-
 1.7930646321,-0.167012054\H,0,6.8647860654,-3.3466054018,-1.0355996701
 \P,0,-2.3562671486,0.9061435395,-0.418454918\C,0,-3.75847967,0.2690854
 368,-1.4072734055\C,0,-5.0927895456,0.5208475143,-1.0680021871\C,0,-6.
 1224028394,0.0116883742,-1.8530069394\C,0,-5.8286491641,-0.7514122863,
 -2.9842048548\C,0,-4.5025237918,-0.9973830181,-3.3323235682\C,0,-3.470
 7374778,-0.4834538578,-2.5489381941\H,0,-2.4256882436,-0.6711219917,-2
 .8104011676\H,0,-4.2680497389,-1.5929093248,-4.2175415845\H,0,-6.63876
 55238,-1.1524684427,-3.5981042514\H,0,-7.1619669677,0.2112248765,-1.58
 18575757\H,0,-5.3300440563,1.1148694108,-0.1831434411\C,0,-2.585008907
 4,0.2289554564,1.2707328633\C,0,-2.2136728782,1.0302518938,2.362489059
 \C,0,-2.2293423752,0.5305901565,3.6601084185\C,0,-2.6251724593,-0.7853
 722975,3.8911058649\C,0,-2.9602941067,-1.5984712648,2.8145818444\C,0,-
 2.9169272516,-1.1242737426,1.4958413515\C,0,-3.1957816392,-2.114395517
 5,0.4118288229\C,0,-4.506232112,-2.572090883,0.2443192629\C,0,-4.81913
 41722,-3.5455187256,-0.6997878034\C,0,-3.8058348491,-4.1060254311,-1.4
 71480369\C,0,-2.4915242941,-3.6768882288,-1.3072477273\C,0,-2.17015349
 19,-2.6750034409,-0.3848591389\P,0,-0.4649509956,-2.0091519959,-0.2349
 527235\C,0,0.5883335139,-3.0665817241,-1.2816418751\C,0,1.6675739553,-
 3.7930934436,-0.7677505164\C,0,2.539754051,-4.4581926483,-1.628161173\
 C,0,2.3397073204,-4.4146861056,-3.0053691806\C,0,1.2721318191,-3.68353
 29336,-3.5267750059\C,0,0.415285528,-2.9969945841,-2.6728028042\H,0,-0
 .388946423,-2.3846125937,-3.090438269\H,0,1.120167474,-3.6274576064,-4
 .6072649674\H,0,3.0270259194,-4.9357863644,-3.6756155862\H,0,3.3883249
 401,-5.0087291861,-1.2159225971\H,0,1.8398796338,-3.8243639606,0.30955
 4451\C,0,-0.0388442963,-2.4512913379,1.4854747194\C,0,0.4491385546,-1.
 4643149385,2.3426307488\C,0,0.7643282362,-1.7706566696,3.6652114659\C,
 0,0.5743688278,-3.0657572668,4.1403142076\C,0,0.0648643448,-4.05382805
 51,3.2941593279\C,0,-0.2402520606,-3.7506294243,1.9705380991\H,0,-0.64
 51474119,-4.5225789314,1.3104901863\C,0,-1.9559189652,3.5464158774,-1.
 0691916957\C,0,-2.1551093136,4.9245619854,-1.0164136395\C,0,-3.1182327
 349,5.4557002022,-0.1631046296\C,0,-3.8836961568,4.6073337139,0.639586
 647\C,0,-3.6825299234,3.2312224109,0.5938032131\C,0,-2.7123889296,2.69
 03923691,-0.2625550923\H,0,-4.2669606472,2.5791137072,1.2473449276\H,0
 ,-4.6366878145,5.0228146163,1.3137554254\H,0,-3.269111877,6.5367672057
 ,-0.1125126534\H,0,-1.5319621803,5.5776407306,-1.6303836024\H,0,-1.196
 378357,3.1342361018,-1.7370502036\H,0,-0.0944354123,-5.067430653,3.670
 095968\H,0,0.8174805216,-3.3085114531,5.177603388\H,0,1.1587326654,-0.
 9927824795,4.3230322119\H,0,0.5523678498,-0.4447445683,1.9686034793\H,
 0,-1.7008025437,-4.1332533927,-1.9050769344\H,0,-4.034078625,-4.884183
 7272,-2.2035085646\H,0,-5.8548742515,-3.8679786135,-0.8267166577\H,0,-
 5.2939505873,-2.1342831666,0.8614787845\H,0,-3.2253127969,-2.644918203
 8,2.9821861275\H,0,-2.6464333315,-1.188435468,4.9058032055\H,0,-1.9278
 571474,1.1747280996,4.4895324841\H,0,-1.8972263026,2.0612494417,2.1890
 302771\Pd,0,-0.099894871,0.2118844934,-0.7407796043\\Version=ES64L-G09
 RevD.01\State=1-A\HF=-4276.0380353\RMSD=3.484e-09\Dipole=-1.4698357,-3
 .8735417,0.9140447\Quadrupole=18.1635645,-11.4079394,-6.755625,-6.9727
 528,1.649649,10.2689745\PG=C01 [X(C50H36Cl1F4N1O3P2Pd1S1)]\\@


  ON THE CHOICE OF THE CORRECT LANGUAGE -
 I SPEAK SPANISH TO GOD, ITALIAN TO WOMEN,
 FRENCH TO MEN, AND GERMAN TO MY HORSE.
          -- CHARLES V
 Job cpu time:       1 days 22 hours 41 minutes 28.5 seconds.
 File lengths (MBytes):  RWF=   3372 Int=      0 D2E=      0 Chk=    205 Scr=      1
 Normal termination of Gaussian 09 at Tue Apr  9 21:39:06 2024.
