 Entering Gaussian System, Link 0=g09
 Input=ts-dcype-v1-released-sp.com
 Output=ts-dcype-v1-released-sp.log
 Initial command:
 /cluster/apps/gaussian/g09/l1.exe "/cluster/scratch/sroediger/michael/singlepoints/Gau-5795.inp" -scrdir="/cluster/scratch/sroediger/michael/singlepoints/"
 Entering Link 1 = /cluster/apps/gaussian/g09/l1.exe PID=      5802.
  
 Copyright (c) 1988,1990,1992,1993,1995,1998,2003,2009,2013,
            Gaussian, Inc.  All Rights Reserved.
  
 This is part of the Gaussian(R) 09 program.  It is based on
 the Gaussian(R) 03 system (copyright 2003, Gaussian, Inc.),
 the Gaussian(R) 98 system (copyright 1998, Gaussian, Inc.),
 the Gaussian(R) 94 system (copyright 1995, Gaussian, Inc.),
 the Gaussian 92(TM) system (copyright 1992, Gaussian, Inc.),
 the Gaussian 90(TM) system (copyright 1990, Gaussian, Inc.),
 the Gaussian 88(TM) system (copyright 1988, Gaussian, Inc.),
 the Gaussian 86(TM) system (copyright 1986, Carnegie Mellon
 University), and the Gaussian 82(TM) system (copyright 1983,
 Carnegie Mellon University). Gaussian is a federally registered
 trademark of Gaussian, Inc.
  
 This software contains proprietary and confidential information,
 including trade secrets, belonging to Gaussian, Inc.
  
 This software is provided under written license and may be
 used, copied, transmitted, or stored only in accord with that
 written license.
  
 The following legend is applicable only to US Government
 contracts under FAR:
  
                    RESTRICTED RIGHTS LEGEND
  
 Use, reproduction and disclosure by the US Government is
 subject to restrictions as set forth in subparagraphs (a)
 and (c) of the Commercial Computer Software - Restricted
 Rights clause in FAR 52.227-19.
  
 Gaussian, Inc.
 340 Quinnipiac St., Bldg. 40, Wallingford CT 06492
  
  
 ---------------------------------------------------------------
 Warning -- This program may not be used in any manner that
 competes with the business of Gaussian, Inc. or will provide
 assistance to any competitor of Gaussian, Inc.  The licensee
 of this program is prohibited from giving any competitor of
 Gaussian, Inc. access to this program.  By using this program,
 the user acknowledges that Gaussian, Inc. is engaged in the
 business of creating and licensing software in the field of
 computational chemistry and represents and warrants to the
 licensee that it is not a competitor of Gaussian, Inc. and that
 it will not use this program in any manner prohibited above.
 ---------------------------------------------------------------
  

 Cite this work as:
 Gaussian 09, Revision D.01,
 M. J. Frisch, G. W. Trucks, H. B. Schlegel, G. E. Scuseria, 
 M. A. Robb, J. R. Cheeseman, G. Scalmani, V. Barone, B. Mennucci, 
 G. A. Petersson, H. Nakatsuji, M. Caricato, X. Li, H. P. Hratchian, 
 A. F. Izmaylov, J. Bloino, G. Zheng, J. L. Sonnenberg, M. Hada, 
 M. Ehara, K. Toyota, R. Fukuda, J. Hasegawa, M. Ishida, T. Nakajima, 
 Y. Honda, O. Kitao, H. Nakai, T. Vreven, J. A. Montgomery, Jr., 
 J. E. Peralta, F. Ogliaro, M. Bearpark, J. J. Heyd, E. Brothers, 
 K. N. Kudin, V. N. Staroverov, T. Keith, R. Kobayashi, J. Normand, 
 K. Raghavachari, A. Rendell, J. C. Burant, S. S. Iyengar, J. Tomasi, 
 M. Cossi, N. Rega, J. M. Millam, M. Klene, J. E. Knox, J. B. Cross, 
 V. Bakken, C. Adamo, J. Jaramillo, R. Gomperts, R. E. Stratmann, 
 O. Yazyev, A. J. Austin, R. Cammi, C. Pomelli, J. W. Ochterski, 
 R. L. Martin, K. Morokuma, V. G. Zakrzewski, G. A. Voth, 
 P. Salvador, J. J. Dannenberg, S. Dapprich, A. D. Daniels, 
 O. Farkas, J. B. Foresman, J. V. Ortiz, J. Cioslowski, 
 and D. J. Fox, Gaussian, Inc., Wallingford CT, 2013.
 
 ******************************************
 Gaussian 09:  ES64L-G09RevD.01 24-Apr-2013
                 3-Mar-2024 
 ******************************************
 %nprocshared=8
 Will use up to    8 processors via shared memory.
 %mem=16GB
 %oldchk=ts-dcype-v1-released.chk
 %chk=ts-dcype-v1-released-sp.chk
 Copying data from "ts-dcype-v1-released.chk" to current chk file "ts-dcype-v1-released-sp.chk".
 ----------------------------------------------------------------------
 #p sp geom=allcheck scrf(solvent=dichloromethane,smd) wb97xd genecp te
 mperature=313 integral(grid=ultrafine)
 ----------------------------------------------------------------------
 1/29=7,38=1,112=313000/1;
 2/12=2,40=1/2;
 3/5=7,11=2,14=-4,16=1,17=8,25=1,30=1,70=32201,72=9,74=-58,75=-5/1,2,3;
 4//1;
 5/5=2,38=5,53=9/2;
 6/7=2,8=2,9=2,10=2,28=1/1;
 99/5=1,9=1/99;
 Leave Link    1 at Sun Mar  3 12:46:33 2024, MaxMem=  2147483648 cpu:         2.2
 (Enter /cluster/apps/gaussian/g09/l101.exe)
 Structure from the checkpoint file:  "ts-dcype-v1-released-sp.chk"
 -----
 title
 -----
 Charge =  0 Multiplicity = 1
 Redundant internal coordinates found in file.
 C,0,-0.9534685775,0.6398992613,1.3462846304
 C,0,-1.1392552335,0.5781430435,2.7577824947
 H,0,-0.3230089826,0.2469241087,3.402875586
 C,0,-2.3939099848,0.8231041913,3.2850196866
 H,0,-2.5796987356,0.6888153872,4.3534212578
 C,0,-3.4779346503,1.2310117286,2.4773191387
 C,0,-3.2608802027,1.4852319608,1.1276705217
 H,0,-4.0358963563,1.9144904699,0.4942118518
 C,0,-1.9949431283,1.2400674331,0.5721062673
 C,0,-1.4834248584,1.6957517862,-0.6907772825
 C,0,-2.1660116623,2.0966196883,-1.839163483
 C,0,-1.4733880208,2.538487206,-2.9566507018
 C,0,-0.0764908028,2.591540931,-2.926830409
 C,0,0.6315640572,2.2111144032,-1.7899122991
 C,0,-0.0621596898,1.769720636,-0.6622629657
 N,0,0.4732467488,1.2839178361,0.5465528325
 S,0,1.604929816,2.0961184398,1.4810928223
 O,0,1.9484131057,1.1738396254,2.5583925352
 O,0,2.6367747049,2.7118727062,0.6697637356
 C,0,0.6387114561,3.3975632551,2.2736883514
 Cl,0,0.0147411483,4.5763193061,1.1292027454
 H,0,1.329148216,3.8786309145,2.9802722895
 H,0,-0.1890054443,2.9029860333,2.8020706231
 F,0,1.9529845835,2.2322841735,-1.8616047185
 F,0,0.5851142695,2.9549545656,-4.0170971969
 F,0,-2.1178861384,2.8871812256,-4.0598046296
 F,0,-3.4975146571,2.0356977,-1.8923750122
 O,0,-4.6661182818,1.3957589435,3.1150087361
 C,0,-5.7634802559,1.796556798,2.3524916283
 H,0,-5.9771949585,1.0849168115,1.5326997108
 H,0,-5.6196691362,2.799545914,1.9101772773
 H,0,-6.6282227167,1.8306807153,3.0280739827
 Pd,0,0.3557572299,-0.8109130968,0.6840340766
 P,0,-0.8332623098,-2.7593701611,0.7612448943
 C,0,0.2179338483,-4.0913674556,0.0033721231
 C,0,-2.4079619265,-2.8329762892,-0.2113966566
 C,0,-1.2701945002,-3.3237590514,2.4642257456
 C,0,1.7199300148,-3.8802717641,0.2152558851
 H,0,-0.0951217398,-5.0843931956,0.3639245472
 H,0,-0.0200692165,-4.0645059109,-1.0714703648
 C,0,-3.5410276513,-2.1379543375,0.5491117366
 C,0,-2.1756263782,-2.1614338232,-1.5704350145
 H,0,-2.6745859588,-3.89498132,-0.3733208223
 C,0,-1.9651745564,-4.6800370756,2.5671474909
 C,0,-0.0534632863,-3.2569634162,3.3893851439
 H,0,-1.9714146161,-2.5368388513,2.8008549631
 P,0,2.2511319162,-2.1003301323,0.0683379966
 H,0,2.3015980943,-4.5145465579,-0.473066403
 H,0,1.9998590201,-4.1871161541,1.2355199086
 C,0,-4.8117759768,-2.0303695452,-0.2877918042
 H,0,-3.2097641876,-1.126389838,0.8369564516
 H,0,-3.7638002515,-2.6727416263,1.4849772882
 C,0,-3.453622354,-2.0767148353,-2.3963615203
 H,0,-1.7847147067,-1.1437670729,-1.388486734
 H,0,-1.3935271102,-2.6923502589,-2.1363332939
 C,0,-2.3520257511,-4.9881004654,4.0121788531
 H,0,-1.2830993864,-5.4682856867,2.2005400068
 H,0,-2.8566890651,-4.7140523118,1.9208493651
 C,0,-0.4445359265,-3.5588210808,4.8313990037
 H,0,0.6996018627,-3.994800316,3.0587236258
 H,0,0.4234654549,-2.2674557298,3.307817189
 C,0,2.8161035229,-1.9117198233,-1.6870053765
 C,0,3.7873402754,-1.9939022581,1.0901476117
 C,0,-4.5557761675,-1.3571543387,-1.6299592188
 H,0,-5.5768718279,-1.4777613729,0.2820817929
 H,0,-5.2229239884,-3.0421026066,-0.4601377608
 H,0,-3.2451397997,-1.5618998094,-3.3481437018
 H,0,-3.7911075991,-3.0960332096,-2.6592999215
 C,0,-1.1501630598,-4.9056231397,4.9472612121
 H,0,-2.8212832638,-5.9833878159,4.073719256
 H,0,-3.1182657333,-4.2623402856,4.3389801907
 H,0,0.4472966547,-3.5322945703,5.4781177993
 H,0,-1.1159795964,-2.7594439354,5.1931917895
 C,0,1.5892129411,-1.9103238306,-2.6065558239
 C,0,3.6118870156,-0.6117228574,-1.8332416735
 H,0,3.4628064144,-2.7692155569,-1.952140747
 C,0,3.4415462817,-2.0190361306,2.5809641353
 C,0,4.8846962969,-2.9997778344,0.7464082443
 H,0,4.1564131352,-0.9753015002,0.8702907977
 H,0,-5.4818817425,-1.3252841404,-2.2263466111
 H,0,-4.2531098911,-0.3093061552,-1.4652524198
 H,0,-1.461673347,-5.0895255048,5.9880605525
 H,0,-0.4367422428,-5.7101262675,4.6907290819
 C,0,1.9456682993,-1.5980573301,-4.055341891
 H,0,0.8731067523,-1.1554264059,-2.2323756566
 H,0,1.0709609558,-2.8809867833,-2.5486733284
 C,0,3.94467164,-0.2932057632,-3.2877366696
 H,0,3.0260941376,0.2175896763,-1.4025380866
 H,0,4.5437187388,-0.6674911367,-1.2493021835
 C,0,4.6859202579,-1.8046121307,3.4356490621
 H,0,2.9895659488,-2.993132235,2.842288269
 H,0,2.688507991,-1.2438566326,2.7927395988
 C,0,6.1231383797,-2.7814731934,1.6125914596
 H,0,4.5046478872,-4.0244624142,0.910257688
 H,0,5.1524860784,-2.9328115164,-0.3206639805
 C,0,2.7027735143,-0.2816322755,-4.1697896747
 H,0,1.0277524457,-1.5735189463,-4.6648837894
 H,0,2.5691456977,-2.4147162674,-4.463009289
 H,0,4.4620848982,0.67774513,-3.3391666268
 H,0,4.6548239251,-1.0483293898,-3.6720093401
 C,0,5.7811821833,-2.8102884714,3.0982470796
 H,0,4.4223320454,-1.8635962752,4.5040034317
 H,0,5.0607952071,-0.7797533016,3.2656818568
 H,0,6.8883111878,-3.5388016908,1.3761607612
 H,0,6.5671227214,-1.801493133,1.3611440386
 H,0,2.9793108205,-0.0874519017,-5.2184759082
 H,0,2.0485901056,0.5523026323,-3.8643748232
 H,0,6.6825300111,-2.6163262268,3.701882938
 H,0,5.4383793246,-3.8255970024,3.3705954872
 Recover connectivity data from disk.
 NAtoms=    109 NQM=      109 NQMF=       0 NMMI=      0 NMMIF=      0
                NMic=       0 NMicF=      0.
                    Isotopes and Nuclear Properties:
 (Nuclear quadrupole moments (NQMom) in fm**2, nuclear magnetic moments (NMagM)
  in nuclear magnetons)

  Atom         1           2           3           4           5           6           7           8           9          10
 IAtWgt=          12          12           1          12           1          12          12           1          12          12
 AtmWgt=  12.0000000  12.0000000   1.0078250  12.0000000   1.0078250  12.0000000  12.0000000   1.0078250  12.0000000  12.0000000
 NucSpn=           0           0           1           0           1           0           0           1           0           0
 AtZEff=  -3.6000000  -3.6000000  -1.0000000  -3.6000000  -1.0000000  -3.6000000  -3.6000000  -1.0000000  -3.6000000  -3.6000000
 NQMom=    0.0000000   0.0000000   0.0000000   0.0000000   0.0000000   0.0000000   0.0000000   0.0000000   0.0000000   0.0000000
 NMagM=    0.0000000   0.0000000   2.7928460   0.0000000   2.7928460   0.0000000   0.0000000   2.7928460   0.0000000   0.0000000
 AtZNuc=   6.0000000   6.0000000   1.0000000   6.0000000   1.0000000   6.0000000   6.0000000   1.0000000   6.0000000   6.0000000

  Atom        11          12          13          14          15          16          17          18          19          20
 IAtWgt=          12          12          12          12          12          14          32          16          16          12
 AtmWgt=  12.0000000  12.0000000  12.0000000  12.0000000  12.0000000  14.0030740  31.9720718  15.9949146  15.9949146  12.0000000
 NucSpn=           0           0           0           0           0           2           0           0           0           0
 AtZEff=  -3.6000000  -3.6000000  -3.6000000  -3.6000000  -3.6000000  -4.5500000 -13.6000000  -5.6000000  -5.6000000  -3.6000000
 NQMom=    0.0000000   0.0000000   0.0000000   0.0000000   0.0000000   2.0440000   0.0000000   0.0000000   0.0000000   0.0000000
 NMagM=    0.0000000   0.0000000   0.0000000   0.0000000   0.0000000   0.4037610   0.0000000   0.0000000   0.0000000   0.0000000
 AtZNuc=   6.0000000   6.0000000   6.0000000   6.0000000   6.0000000   7.0000000  16.0000000   8.0000000   8.0000000   6.0000000

  Atom        21          22          23          24          25          26          27          28          29          30
 IAtWgt=          35           1           1          19          19          19          19          16          12           1
 AtmWgt=  34.9688527   1.0078250   1.0078250  18.9984033  18.9984033  18.9984033  18.9984033  15.9949146  12.0000000   1.0078250
 NucSpn=           3           1           1           1           1           1           1           0           0           1
 AtZEff= -14.2400000  -1.0000000  -1.0000000  -6.7500000  -6.7500000  -6.7500000  -6.7500000  -5.6000000  -3.6000000  -1.0000000
 NQMom=   -8.1650000   0.0000000   0.0000000   0.0000000   0.0000000   0.0000000   0.0000000   0.0000000   0.0000000   0.0000000
 NMagM=    0.8218740   2.7928460   2.7928460   2.6288670   2.6288670   2.6288670   2.6288670   0.0000000   0.0000000   2.7928460
 AtZNuc=  17.0000000   1.0000000   1.0000000   9.0000000   9.0000000   9.0000000   9.0000000   8.0000000   6.0000000   1.0000000

  Atom        31          32          33          34          35          36          37          38          39          40
 IAtWgt=           1           1         106          31          12          12          12          12           1           1
 AtmWgt=   1.0078250   1.0078250 105.9032000  30.9737634  12.0000000  12.0000000  12.0000000  12.0000000   1.0078250   1.0078250
 NucSpn=           1           1           0           1           0           0           0           0           1           1
 AtZEff=  -1.0000000  -1.0000000-237.3600000 -12.9400000  -3.6000000  -3.6000000  -3.6000000  -3.6000000  -1.0000000  -1.0000000
 NQMom=    0.0000000   0.0000000   0.0000000   0.0000000   0.0000000   0.0000000   0.0000000   0.0000000   0.0000000   0.0000000
 NMagM=    2.7928460   2.7928460   0.0000000   1.1316000   0.0000000   0.0000000   0.0000000   0.0000000   2.7928460   2.7928460
 AtZNuc=   1.0000000   1.0000000  46.0000000  15.0000000   6.0000000   6.0000000   6.0000000   6.0000000   1.0000000   1.0000000

  Atom        41          42          43          44          45          46          47          48          49          50
 IAtWgt=          12          12           1          12          12           1          31           1           1          12
 AtmWgt=  12.0000000  12.0000000   1.0078250  12.0000000  12.0000000   1.0078250  30.9737634   1.0078250   1.0078250  12.0000000
 NucSpn=           0           0           1           0           0           1           1           1           1           0
 AtZEff=  -3.6000000  -3.6000000  -1.0000000  -3.6000000  -3.6000000  -1.0000000 -12.9400000  -1.0000000  -1.0000000  -3.6000000
 NQMom=    0.0000000   0.0000000   0.0000000   0.0000000   0.0000000   0.0000000   0.0000000   0.0000000   0.0000000   0.0000000
 NMagM=    0.0000000   0.0000000   2.7928460   0.0000000   0.0000000   2.7928460   1.1316000   2.7928460   2.7928460   0.0000000
 AtZNuc=   6.0000000   6.0000000   1.0000000   6.0000000   6.0000000   1.0000000  15.0000000   1.0000000   1.0000000   6.0000000

  Atom        51          52          53          54          55          56          57          58          59          60
 IAtWgt=           1           1          12           1           1          12           1           1          12           1
 AtmWgt=   1.0078250   1.0078250  12.0000000   1.0078250   1.0078250  12.0000000   1.0078250   1.0078250  12.0000000   1.0078250
 NucSpn=           1           1           0           1           1           0           1           1           0           1
 AtZEff=  -1.0000000  -1.0000000  -3.6000000  -1.0000000  -1.0000000  -3.6000000  -1.0000000  -1.0000000  -3.6000000  -1.0000000
 NQMom=    0.0000000   0.0000000   0.0000000   0.0000000   0.0000000   0.0000000   0.0000000   0.0000000   0.0000000   0.0000000
 NMagM=    2.7928460   2.7928460   0.0000000   2.7928460   2.7928460   0.0000000   2.7928460   2.7928460   0.0000000   2.7928460
 AtZNuc=   1.0000000   1.0000000   6.0000000   1.0000000   1.0000000   6.0000000   1.0000000   1.0000000   6.0000000   1.0000000

  Atom        61          62          63          64          65          66          67          68          69          70
 IAtWgt=           1          12          12          12           1           1           1           1          12           1
 AtmWgt=   1.0078250  12.0000000  12.0000000  12.0000000   1.0078250   1.0078250   1.0078250   1.0078250  12.0000000   1.0078250
 NucSpn=           1           0           0           0           1           1           1           1           0           1
 AtZEff=  -1.0000000  -3.6000000  -3.6000000  -3.6000000  -1.0000000  -1.0000000  -1.0000000  -1.0000000  -3.6000000  -1.0000000
 NQMom=    0.0000000   0.0000000   0.0000000   0.0000000   0.0000000   0.0000000   0.0000000   0.0000000   0.0000000   0.0000000
 NMagM=    2.7928460   0.0000000   0.0000000   0.0000000   2.7928460   2.7928460   2.7928460   2.7928460   0.0000000   2.7928460
 AtZNuc=   1.0000000   6.0000000   6.0000000   6.0000000   1.0000000   1.0000000   1.0000000   1.0000000   6.0000000   1.0000000

  Atom        71          72          73          74          75          76          77          78          79          80
 IAtWgt=           1           1           1          12          12           1          12          12           1           1
 AtmWgt=   1.0078250   1.0078250   1.0078250  12.0000000  12.0000000   1.0078250  12.0000000  12.0000000   1.0078250   1.0078250
 NucSpn=           1           1           1           0           0           1           0           0           1           1
 AtZEff=  -1.0000000  -1.0000000  -1.0000000  -3.6000000  -3.6000000  -1.0000000  -3.6000000  -3.6000000  -1.0000000  -1.0000000
 NQMom=    0.0000000   0.0000000   0.0000000   0.0000000   0.0000000   0.0000000   0.0000000   0.0000000   0.0000000   0.0000000
 NMagM=    2.7928460   2.7928460   2.7928460   0.0000000   0.0000000   2.7928460   0.0000000   0.0000000   2.7928460   2.7928460
 AtZNuc=   1.0000000   1.0000000   1.0000000   6.0000000   6.0000000   1.0000000   6.0000000   6.0000000   1.0000000   1.0000000

  Atom        81          82          83          84          85          86          87          88          89          90
 IAtWgt=           1           1           1          12           1           1          12           1           1          12
 AtmWgt=   1.0078250   1.0078250   1.0078250  12.0000000   1.0078250   1.0078250  12.0000000   1.0078250   1.0078250  12.0000000
 NucSpn=           1           1           1           0           1           1           0           1           1           0
 AtZEff=  -1.0000000  -1.0000000  -1.0000000  -3.6000000  -1.0000000  -1.0000000  -3.6000000  -1.0000000  -1.0000000  -3.6000000
 NQMom=    0.0000000   0.0000000   0.0000000   0.0000000   0.0000000   0.0000000   0.0000000   0.0000000   0.0000000   0.0000000
 NMagM=    2.7928460   2.7928460   2.7928460   0.0000000   2.7928460   2.7928460   0.0000000   2.7928460   2.7928460   0.0000000
 AtZNuc=   1.0000000   1.0000000   1.0000000   6.0000000   1.0000000   1.0000000   6.0000000   1.0000000   1.0000000   6.0000000

  Atom        91          92          93          94          95          96          97          98          99         100
 IAtWgt=           1           1          12           1           1          12           1           1           1           1
 AtmWgt=   1.0078250   1.0078250  12.0000000   1.0078250   1.0078250  12.0000000   1.0078250   1.0078250   1.0078250   1.0078250
 NucSpn=           1           1           0           1           1           0           1           1           1           1
 AtZEff=  -1.0000000  -1.0000000  -3.6000000  -1.0000000  -1.0000000  -3.6000000  -1.0000000  -1.0000000  -1.0000000  -1.0000000
 NQMom=    0.0000000   0.0000000   0.0000000   0.0000000   0.0000000   0.0000000   0.0000000   0.0000000   0.0000000   0.0000000
 NMagM=    2.7928460   2.7928460   0.0000000   2.7928460   2.7928460   0.0000000   2.7928460   2.7928460   2.7928460   2.7928460
 AtZNuc=   1.0000000   1.0000000   6.0000000   1.0000000   1.0000000   6.0000000   1.0000000   1.0000000   1.0000000   1.0000000

  Atom       101         102         103         104         105         106         107         108         109
 IAtWgt=          12           1           1           1           1           1           1           1           1
 AtmWgt=  12.0000000   1.0078250   1.0078250   1.0078250   1.0078250   1.0078250   1.0078250   1.0078250   1.0078250
 NucSpn=           0           1           1           1           1           1           1           1           1
 AtZEff=  -3.6000000  -1.0000000  -1.0000000  -1.0000000  -1.0000000  -1.0000000  -1.0000000  -1.0000000  -1.0000000
 NQMom=    0.0000000   0.0000000   0.0000000   0.0000000   0.0000000   0.0000000   0.0000000   0.0000000   0.0000000
 NMagM=    0.0000000   2.7928460   2.7928460   2.7928460   2.7928460   2.7928460   2.7928460   2.7928460   2.7928460
 AtZNuc=   6.0000000   1.0000000   1.0000000   1.0000000   1.0000000   1.0000000   1.0000000   1.0000000   1.0000000
 Leave Link  101 at Sun Mar  3 12:46:33 2024, MaxMem=  2147483648 cpu:         2.2
 (Enter /cluster/apps/gaussian/g09/l202.exe)
 Stoichiometry    C40H56ClF4NO3P2PdS
 Framework group  C1[X(C40H56ClF4NO3P2PdS)]
 Deg. of freedom   321
 Full point group                 C1      NOp   1
 RotChk:  IX=2 Diff= 6.29D-15
 Largest Abelian subgroup         C1      NOp   1
 Largest concise Abelian subgroup C1      NOp   1
                         Standard orientation:                         
 ---------------------------------------------------------------------
 Center     Atomic      Atomic             Coordinates (Angstroms)
 Number     Number       Type             X           Y           Z
 ---------------------------------------------------------------------
      1          6           0       -1.127308    0.660271   -1.209114
      2          6           0       -0.808759    1.633459   -2.200117
      3          1           0        0.186390    1.651485   -2.648963
      4          6           0       -1.728336    2.623328   -2.494533
      5          1           0       -1.467730    3.432574   -3.181001
      6          6           0       -3.016099    2.643923   -1.915637
      7          6           0       -3.409455    1.590787   -1.097427
      8          1           0       -4.429890    1.504222   -0.726749
      9          6           0       -2.489812    0.577263   -0.783772
     10          6           0       -2.761358   -0.714543   -0.216608
     11          6           0       -3.849005   -1.146553    0.542208
     12          6           0       -3.935131   -2.462793    0.970979
     13          6           0       -2.925171   -3.367570    0.629825
     14          6           0       -1.834438   -2.968772   -0.138232
     15          6           0       -1.746398   -1.646135   -0.574758
     16          7           0       -0.698371   -1.042152   -1.296383
     17         16           0       -0.074866   -1.627737   -2.739322
     18          8           0        1.055901   -0.759746   -3.050951
     19          8           0        0.075655   -3.069632   -2.719512
     20          6           0       -1.340680   -1.194864   -3.950058
     21         17           0       -2.853778   -2.050081   -3.689689
     22          1           0       -0.911086   -1.465350   -4.924571
     23          1           0       -1.497356   -0.109314   -3.872961
     24          9           0       -0.891148   -3.868461   -0.367371
     25          9           0       -2.978767   -4.608923    1.093119
     26          9           0       -4.949671   -2.866828    1.720231
     27          9           0       -4.812783   -0.293428    0.892570
     28          8           0       -3.805292    3.695591   -2.257309
     29          6           0       -5.085223    3.754637   -1.705435
     30          1           0       -5.056503    3.768387   -0.599474
     31          1           0       -5.716004    2.904298   -2.023789
     32          1           0       -5.545038    4.686145   -2.060706
     33         46           0        0.521100    0.157963   -0.074239
     34         15           0        0.841742    1.937019    1.321599
     35          6           0        2.199164    1.485145    2.507692
     36          6           0       -0.566947    2.416148    2.424848
     37          6           0        1.364660    3.491894    0.473949
     38          6           0        3.245376    0.540359    1.909136
     39          1           0        2.674499    2.391350    2.916288
     40          1           0        1.688107    0.997454    3.352459
     41          6           0       -1.599311    3.239685    1.649426
     42          6           0       -1.203911    1.139638    2.987638
     43          1           0       -0.170563    3.022240    3.261923
     44          6           0        1.700563    4.673868    1.381246
     45          6           0        2.498621    3.218002   -0.515965
     46          1           0        0.470453    3.745469   -0.126356
     47         15           0        2.519335   -0.773520    0.805261
     48          1           0        3.854627    0.082198    2.704958
     49          1           0        3.940406    1.108947    1.271098
     50          6           0       -2.852399    3.512735    2.475257
     51          1           0       -1.880065    2.690742    0.735265
     52          1           0       -1.163408    4.195053    1.319681
     53          6           0       -2.445290    1.435139    3.820863
     54          1           0       -1.475643    0.487640    2.137567
     55          1           0       -0.472550    0.572823    3.585655
     56          6           0        2.029154    5.918362    0.559094
     57          1           0        2.572521    4.415746    2.008961
     58          1           0        0.870043    4.885527    2.073411
     59          6           0        2.819446    4.460349   -1.338830
     60          1           0        3.403290    2.910188    0.038717
     61          1           0        2.229362    2.371192   -1.166851
     62          6           0        2.302613   -2.253653    1.899900
     63          6           0        3.894309   -1.215657   -0.347699
     64          6           0       -3.467867    2.230057    3.019411
     65          1           0       -3.583110    4.060149    1.857274
     66          1           0       -2.596371    4.180351    3.318517
     67          1           0       -2.884417    0.489611    4.177980
     68          1           0       -2.157066    2.006466    4.722282
     69          6           0        3.145588    5.651972   -0.445032
     70          1           0        2.301639    6.751454    1.227148
     71          1           0        1.120893    6.238395    0.017531
     72          1           0        3.654851    4.252465   -2.026724
     73          1           0        1.947200    4.703296   -1.971995
     74          6           0        1.121603   -2.003979    2.845264
     75          6           0        2.062421   -3.497463    1.039729
     76          1           0        3.220341   -2.395380    2.501156
     77          6           0        4.095915   -0.111868   -1.388729
     78          6           0        5.211678   -1.618206    0.313080
     79          1           0        3.486685   -2.088473   -0.890040
     80          1           0       -4.348973    2.460153    3.639955
     81          1           0       -3.828216    1.609536    2.181662
     82          1           0        3.334996    6.550473   -1.054083
     83          1           0        4.083198    5.446058    0.103138
     84          6           0        0.766878   -3.233269    3.673858
     85          1           0        0.246870   -1.702989    2.239511
     86          1           0        1.341889   -1.153884    3.510797
     87          6           0        1.684719   -4.718021    1.873595
     88          1           0        1.255877   -3.284171    0.318333
     89          1           0        2.958507   -3.726574    0.442282
     90          6           0        5.140230   -0.518205   -2.422765
     91          1           0        4.427632    0.816103   -0.888457
     92          1           0        3.133445    0.107967   -1.876727
     93          6           0        6.252670   -2.015968   -0.730850
     94          1           0        5.598248   -0.767985    0.903799
     95          1           0        5.052788   -2.445685    1.023622
     96          6           0        0.497582   -4.441929    2.787346
     97          1           0       -0.107643   -3.012441    4.307232
     98          1           0        1.600481   -3.463599    4.362263
     99          1           0        1.465552   -5.563959    1.203175
    100          1           0        2.552191   -5.020968    2.488337
    101          6           0        6.457808   -0.915814   -1.766474
    102          1           0        5.297785    0.303348   -3.140097
    103          1           0        4.747913   -1.368764   -3.007908
    104          1           0        7.206019   -2.266865   -0.237785
    105          1           0        5.914414   -2.935985   -1.240614
    106          1           0        0.273759   -5.327729    3.403124
    107          1           0       -0.399498   -4.260164    2.171805
    108          1           0        7.186316   -1.238419   -2.527807
    109          1           0        6.898443   -0.030869   -1.271245
 ---------------------------------------------------------------------
 Rotational constants (GHZ):      0.0535833      0.0484403      0.0386590
 Leave Link  202 at Sun Mar  3 12:46:33 2024, MaxMem=  2147483648 cpu:         0.0
 (Enter /cluster/apps/gaussian/g09/l301.exe)
 General basis read from cards:  (5D, 7F)
 Centers:       1      2      4      6      7      9     10     11     12     13
 Centers:      14     15     20     29     35     36     37     38     41     42
 Centers:      44     45     50     53     56     59     62     63     64     69
 Centers:      74     75     77     78     84     87     90     93     96    101
 Centers:       3      5      8     22     23     30     31     32     39     40
 Centers:      43     46     48     49     51     52     54     55     57     58
 Centers:      60     61     65     66     67     68     70     71     72     73
 Centers:      76     79     80     81     82     83     85     86     88     89
 Centers:      91     92     94     95     97     98     99    100    102    103
 Centers:     104    105    106    107    108    109     17     24     25     26
 Centers:      27     16     34     47     21     18     19     28     33
 def2tzvp
 ****
 ======================================================================================================
                                       Pseudopotential Parameters
 ======================================================================================================
  Center     Atomic      Valence      Angular      Power
  Number     Number     Electrons     Momentum     of R      Exponent        Coefficient   SO-Coeffient
 ======================================================================================================
    1          6
                                   No pseudopotential on this center.
    2          6
                                   No pseudopotential on this center.
    3          1
                                   No pseudopotential on this center.
    4          6
                                   No pseudopotential on this center.
    5          1
                                   No pseudopotential on this center.
    6          6
                                   No pseudopotential on this center.
    7          6
                                   No pseudopotential on this center.
    8          1
                                   No pseudopotential on this center.
    9          6
                                   No pseudopotential on this center.
   10          6
                                   No pseudopotential on this center.
   11          6
                                   No pseudopotential on this center.
   12          6
                                   No pseudopotential on this center.
   13          6
                                   No pseudopotential on this center.
   14          6
                                   No pseudopotential on this center.
   15          6
                                   No pseudopotential on this center.
   16          7
                                   No pseudopotential on this center.
   17         16
                                   No pseudopotential on this center.
   18          8
                                   No pseudopotential on this center.
   19          8
                                   No pseudopotential on this center.
   20          6
                                   No pseudopotential on this center.
   21         17
                                   No pseudopotential on this center.
   22          1
                                   No pseudopotential on this center.
   23          1
                                   No pseudopotential on this center.
   24          9
                                   No pseudopotential on this center.
   25          9
                                   No pseudopotential on this center.
   26          9
                                   No pseudopotential on this center.
   27          9
                                   No pseudopotential on this center.
   28          8
                                   No pseudopotential on this center.
   29          6
                                   No pseudopotential on this center.
   30          1
                                   No pseudopotential on this center.
   31          1
                                   No pseudopotential on this center.
   32          1
                                   No pseudopotential on this center.
   33         46           18
                                      G and up 
                                                     2        1.0000000        0.00000000    0.00000000
                                      S - G
                                                     2       12.4300000      240.22904000    0.00000000
                                                     2        6.1707590       35.17194300    0.00000000
                                      P - G
                                                     2       11.0800000      170.41727600    0.00000000
                                                     2        5.8295540       28.47213300    0.00000000
                                      D - G
                                                     2        9.5100000       69.01384500    0.00000000
                                                     2        4.1397810       11.75086200    0.00000000
                                      F - G
                                                     2       13.2700000      -31.92955400    0.00000000
                                                     2        6.6300000       -5.39821700    0.00000000
   34         15
                                   No pseudopotential on this center.
   35          6
                                   No pseudopotential on this center.
   36          6
                                   No pseudopotential on this center.
   37          6
                                   No pseudopotential on this center.
   38          6
                                   No pseudopotential on this center.
   39          1
                                   No pseudopotential on this center.
   40          1
                                   No pseudopotential on this center.
   41          6
                                   No pseudopotential on this center.
   42          6
                                   No pseudopotential on this center.
   43          1
                                   No pseudopotential on this center.
   44          6
                                   No pseudopotential on this center.
   45          6
                                   No pseudopotential on this center.
   46          1
                                   No pseudopotential on this center.
   47         15
                                   No pseudopotential on this center.
   48          1
                                   No pseudopotential on this center.
   49          1
                                   No pseudopotential on this center.
   50          6
                                   No pseudopotential on this center.
   51          1
                                   No pseudopotential on this center.
   52          1
                                   No pseudopotential on this center.
   53          6
                                   No pseudopotential on this center.
   54          1
                                   No pseudopotential on this center.
   55          1
                                   No pseudopotential on this center.
   56          6
                                   No pseudopotential on this center.
   57          1
                                   No pseudopotential on this center.
   58          1
                                   No pseudopotential on this center.
   59          6
                                   No pseudopotential on this center.
   60          1
                                   No pseudopotential on this center.
   61          1
                                   No pseudopotential on this center.
   62          6
                                   No pseudopotential on this center.
   63          6
                                   No pseudopotential on this center.
   64          6
                                   No pseudopotential on this center.
   65          1
                                   No pseudopotential on this center.
   66          1
                                   No pseudopotential on this center.
   67          1
                                   No pseudopotential on this center.
   68          1
                                   No pseudopotential on this center.
   69          6
                                   No pseudopotential on this center.
   70          1
                                   No pseudopotential on this center.
   71          1
                                   No pseudopotential on this center.
   72          1
                                   No pseudopotential on this center.
   73          1
                                   No pseudopotential on this center.
   74          6
                                   No pseudopotential on this center.
   75          6
                                   No pseudopotential on this center.
   76          1
                                   No pseudopotential on this center.
   77          6
                                   No pseudopotential on this center.
   78          6
                                   No pseudopotential on this center.
   79          1
                                   No pseudopotential on this center.
   80          1
                                   No pseudopotential on this center.
   81          1
                                   No pseudopotential on this center.
   82          1
                                   No pseudopotential on this center.
   83          1
                                   No pseudopotential on this center.
   84          6
                                   No pseudopotential on this center.
   85          1
                                   No pseudopotential on this center.
   86          1
                                   No pseudopotential on this center.
   87          6
                                   No pseudopotential on this center.
   88          1
                                   No pseudopotential on this center.
   89          1
                                   No pseudopotential on this center.
   90          6
                                   No pseudopotential on this center.
   91          1
                                   No pseudopotential on this center.
   92          1
                                   No pseudopotential on this center.
   93          6
                                   No pseudopotential on this center.
   94          1
                                   No pseudopotential on this center.
   95          1
                                   No pseudopotential on this center.
   96          6
                                   No pseudopotential on this center.
   97          1
                                   No pseudopotential on this center.
   98          1
                                   No pseudopotential on this center.
   99          1
                                   No pseudopotential on this center.
  100          1
                                   No pseudopotential on this center.
  101          6
                                   No pseudopotential on this center.
  102          1
                                   No pseudopotential on this center.
  103          1
                                   No pseudopotential on this center.
  104          1
                                   No pseudopotential on this center.
  105          1
                                   No pseudopotential on this center.
  106          1
                                   No pseudopotential on this center.
  107          1
                                   No pseudopotential on this center.
  108          1
                                   No pseudopotential on this center.
  109          1
                                   No pseudopotential on this center.
 ======================================================================================================
 Ernie: Thresh=  0.10000D-02 Tol=  0.10000D-05 Strict=F.
 There are  2278 symmetry adapted cartesian basis functions of A   symmetry.
 There are  2012 symmetry adapted basis functions of A   symmetry.
  2012 basis functions,  3246 primitive gaussians,  2278 cartesian basis functions
   222 alpha electrons      222 beta electrons
       nuclear repulsion energy     10499.6813062612 Hartrees.
 IExCor= 4639 DFT=T Ex+Corr=wB97XD ExCW=0 ScaHFX=  1.000000
 ScaDFX=  1.000000  1.000000  1.000000  1.000000 ScalE2=  1.000000  1.000000
 IRadAn=      5 IRanWt=     -1 IRanGd=            0 ICorTp=0 IEmpDi=121
  HFx wShort=  0.000000 wLong=  0.200000 cFull=  0.222036 cShort=  0.000000 cLong=  0.777964
  DFx wShort=  0.000000 wLong=  0.200000 cFull=  0.000000 cShort=  0.000000 cLong=  1.000000
 NAtoms=  109 NActive=  109 NUniq=  109 SFac= 1.00D+00 NAtFMM=   60 NAOKFM=T Big=T
 Integral buffers will be    131072 words long.
 Raffenetti 2 integral format.
 Two-electron integral symmetry is turned on.
 R6Disp:  Grimme-D2 Dispersion energy=       -0.1553997124 Hartrees.
 Nuclear repulsion after empirical dispersion term =    10499.5259065487 Hartrees.
 ------------------------------------------------------------------------------
 Polarizable Continuum Model (PCM)
 =================================
 Model                : PCM (using non-symmetric T matrix).
 Atomic radii         : SMD-Coulomb.
 Polarization charges : Total charges.
 Charge compensation  : None.
 Solution method      : On-the-fly selection.
 Cavity type          : VdW (van der Waals Surface) (Alpha=1.000).
 Cavity algorithm     : GePol (No added spheres)
                        Default sphere list used, NSphG=  109.
                        Lebedev-Laikov grids with approx.  5.0 points / Ang**2.
                        Smoothing algorithm: Karplus/York (Gamma=1.0000).
                        Polarization charges: spherical gaussians, with
                                              point-specific exponents (IZeta= 3).
                        Self-potential: point-specific (ISelfS= 7).
                        Self-field    : sphere-specific E.n sum rule (ISelfD= 2).
 Solvent              : Dichloromethane, Eps=   8.930000 Eps(inf)=   2.028346
 ------------------------------------------------------------------------------
 GePol: Number of generator spheres                  =     109
 GePol: Total number of spheres                      =     109
 GePol: Number of exposed spheres                    =     109 (100.00%)
 GePol: Number of points                             =    7215
 GePol: Average weight of points                     =       0.11
 GePol: Minimum weight of points                     =   0.15D-11
 GePol: Maximum weight of points                     =    0.21501
 GePol: Number of points with low weight             =     497
 GePol: Fraction of low-weight points (<1% of avg)   =       6.89%
 GePol: Cavity surface area                          =    796.611 Ang**2
 GePol: Cavity volume                                =    839.546 Ang**3
 ------------------------------------------------------------------------------
 Atomic radii for non-electrostatic terms: SMD-CDS.
 ------------------------------------------------------------------------------
 PCM non-electrostatic energy =        -0.0190196571 Hartrees.
 Nuclear repulsion after PCM non-electrostatic terms =    10499.5068868917 Hartrees.
 Leave Link  301 at Sun Mar  3 12:46:34 2024, MaxMem=  2147483648 cpu:         0.5
 (Enter /cluster/apps/gaussian/g09/l302.exe)
 NPDir=0 NMtPBC=     1 NCelOv=     1 NCel=       1 NClECP=     1 NCelD=      1
         NCelK=      1 NCelE2=     1 NClLst=     1 CellRange=     0.0.
 One-electron integrals computed using PRISM.
   1 Symmetry operations used in ECPInt.
 ECPInt:  NShTT=  334971 NPrTT= 1017406 LenC2=  252347 LenP2D=  496385.
 LDataN:  DoStor=T MaxTD1= 7 Len=  274
 NBasis=  2012 RedAO= T EigKep=  4.53D-06  NBF=  2012
 NBsUse=  2012 1.00D-06 EigRej= -1.00D+00 NBFU=  2012
 Precomputing XC quadrature grid using
 IXCGrd= 4 IRadAn=           5 IRanWt=          -1 IRanGd=           0 AccXCQ= 0.00D+00.
 Defaulting to unpruned grid for atomic number  46.
 Generated NRdTot=       0 NPtTot=           0 NUsed=           0 NTot=          32
 NSgBfM=  2002  2012  2023  2026  2030 MxSgAt=   109 MxSgA2=   109.
 Leave Link  302 at Sun Mar  3 12:46:49 2024, MaxMem=  2147483648 cpu:       124.3
 (Enter /cluster/apps/gaussian/g09/l303.exe)
 DipDrv:  MaxL=1.
 Leave Link  303 at Sun Mar  3 12:46:50 2024, MaxMem=  2147483648 cpu:         4.7
 (Enter /cluster/apps/gaussian/g09/l401.exe)
 ExpMin= 3.70D-02 ExpMax= 6.95D+04 ExpMxC= 2.37D+03 IAcc=3 IRadAn=         5 AccDes= 0.00D+00
 Harris functional with IExCor= 4639 and IRadAn=       5 diagonalized for initial guess.
 HarFok:  IExCor= 4639 AccDes= 0.00D+00 IRadAn=         5 IDoV= 1 UseB2=F ITyADJ=14
 ICtDFT=  3500011 ScaDFX=  1.000000  1.000000  1.000000  1.000000
 Defaulting to unpruned grid for atomic number  46.
 Defaulting to unpruned grid for atomic number  46.
 Defaulting to unpruned grid for atomic number  46.
 Defaulting to unpruned grid for atomic number  46.
 Defaulting to unpruned grid for atomic number  46.
 Defaulting to unpruned grid for atomic number  46.
 Defaulting to unpruned grid for atomic number  46.
 Defaulting to unpruned grid for atomic number  46.
 FoFCou: FMM=F IPFlag=           0 FMFlag=      100000 FMFlg1=        2001
         NFxFlg=           0 DoJE=T BraDBF=F KetDBF=T FulRan=T
         wScrn=  0.000000 ICntrl=     500 IOpCl=  0 I1Cent=   200000004 NGrid=           0
         NMat0=    1 NMatS0=      1 NMatT0=    0 NMatD0=    1 NMtDS0=    0 NMtDT0=    0
 Petite list used in FoFCou.
 Harris En= -3780.45612465737    
 JPrj=0 DoOrth=F DoCkMO=F.
 Leave Link  401 at Sun Mar  3 12:47:45 2024, MaxMem=  2147483648 cpu:       438.5
 (Enter /cluster/apps/gaussian/g09/l502.exe)
 Closed shell SCF:
 Using DIIS extrapolation, IDIIS=  1040.
 Integral symmetry usage will be decided dynamically.
 IVT=    15621342 IEndB=    15621342 NGot=  2147483648 MDV=  2137070509
 LenX=  2137070509 LenY=  2131878947
 Requested convergence on RMS density matrix=1.00D-08 within 128 cycles.
 Requested convergence on MAX density matrix=1.00D-06.
 Requested convergence on             energy=1.00D-06.
 No special actions if energy rises.
 Fock matrices will be formed incrementally for  20 cycles.

 Cycle   1  Pass 1  IDiag  1:
 FoFJK:  IHMeth= 1 ICntrl=       0 DoSepK=T KAlg= 0 I1Cent=   0 FoldK=F
 IRaf=         1 NMat=   1 IRICut=       1 DoRegI=T DoRafI=F ISym2E= 0.
 FoFCou: FMM=T IPFlag=           0 FMFlag=      100000 FMFlg1=        2001
         NFxFlg=           0 DoJE=T BraDBF=F KetDBF=F FulRan=T
         wScrn=  0.000000 ICntrl=     500 IOpCl=  0 I1Cent=           0 NGrid=           0
         NMat0=    1 NMatS0=      1 NMatT0=    0 NMatD0=    1 NMtDS0=    0 NMtDT0=    0
 Symmetry not used in FoFCou.
 FMM levels:  10  Number of levels for PrismC:   9
 Defaulting to unpruned grid for atomic number  46.
 Defaulting to unpruned grid for atomic number  46.
 Defaulting to unpruned grid for atomic number  46.
 Defaulting to unpruned grid for atomic number  46.
 Defaulting to unpruned grid for atomic number  46.
 Defaulting to unpruned grid for atomic number  46.
 Defaulting to unpruned grid for atomic number  46.
 Defaulting to unpruned grid for atomic number  46.
 Inv3:  Mode=1 IEnd=   156168675.
 Iteration    1 A*A^-1 deviation from unit magnitude is 7.55D-15 for   7203.
 Iteration    1 A*A^-1 deviation from orthogonality  is 7.87D-15 for   7190   6540.
 Iteration    1 A^-1*A deviation from unit magnitude is 7.33D-15 for   7203.
 Iteration    1 A^-1*A deviation from orthogonality  is 2.63D-10 for   4195   3787.
 Iteration    2 A*A^-1 deviation from unit magnitude is 4.22D-15 for    186.
 Iteration    2 A*A^-1 deviation from orthogonality  is 4.50D-15 for   7205   1998.
 Iteration    2 A^-1*A deviation from unit magnitude is 1.11D-15 for   2290.
 Iteration    2 A^-1*A deviation from orthogonality  is 6.74D-16 for   7206   1992.
 E= -3898.95419311748    
 DIIS: error= 4.73D-02 at cycle   1 NSaved=   1.
 NSaved= 1 IEnMin= 1 EnMin= -3898.95419311748     IErMin= 1 ErrMin= 4.73D-02
 ErrMax= 4.73D-02  0.00D+00 EMaxC= 1.00D-01 BMatC= 1.46D+01 BMatP= 1.46D+01
 IDIUse=3 WtCom= 5.27D-01 WtEn= 4.73D-01
 Coeff-Com:  0.100D+01
 Coeff-En:   0.100D+01
 Coeff:      0.100D+01
 Gap=     0.220 Goal=   None    Shift=    0.000
 GapD=    0.220 DampG=1.000 DampE=0.250 DampFc=0.2500 IDamp=-1.
 Damping current iteration by 2.50D-01
 RMSDP=2.57D-02 MaxDP=1.53D+01              OVMax= 9.48D-01

 Cycle   2  Pass 1  IDiag  1:
 RMSU=  6.41D-03    CP:  9.44D-01
 E= -3901.79258631502     Delta-E=       -2.838393197540 Rises=F Damp=T
 DIIS: error= 3.23D-02 at cycle   2 NSaved=   2.
 NSaved= 2 IEnMin= 2 EnMin= -3901.79258631502     IErMin= 2 ErrMin= 3.23D-02
 ErrMax= 3.23D-02  0.00D+00 EMaxC= 1.00D-01 BMatC= 4.15D+00 BMatP= 1.46D+01
 IDIUse=3 WtCom= 6.77D-01 WtEn= 3.23D-01
 Coeff-Com: -0.532D+00 0.153D+01
 Coeff-En:   0.404D-01 0.960D+00
 Coeff:     -0.347D+00 0.135D+01
 Gap=     0.714 Goal=   None    Shift=    0.000
 RMSDP=7.92D-03 MaxDP=3.22D+00 DE=-2.84D+00 OVMax= 6.48D-01

 Cycle   3  Pass 1  IDiag  1:
 RMSU=  3.47D-03    CP:  3.64D-01  2.17D-01
 E= -3905.64472582447     Delta-E=       -3.852139509447 Rises=F Damp=F
 DIIS: error= 1.41D-02 at cycle   3 NSaved=   3.
 NSaved= 3 IEnMin= 3 EnMin= -3905.64472582447     IErMin= 3 ErrMin= 1.41D-02
 ErrMax= 1.41D-02  0.00D+00 EMaxC= 1.00D-01 BMatC= 1.66D+00 BMatP= 4.15D+00
 IDIUse=3 WtCom= 8.59D-01 WtEn= 1.41D-01
 Coeff-Com: -0.153D+00 0.556D+00 0.598D+00
 Coeff-En:   0.280D-01 0.000D+00 0.972D+00
 Coeff:     -0.128D+00 0.478D+00 0.650D+00
 Gap=     0.226 Goal=   None    Shift=    0.000
 RMSDP=1.79D-03 MaxDP=5.20D-01 DE=-3.85D+00 OVMax= 4.75D-01

 Cycle   4  Pass 1  IDiag  1:
 RMSU=  1.68D-03    CP:  3.78D-01  1.40D-01  8.99D-01
 E= -3906.61166550428     Delta-E=       -0.966939679814 Rises=F Damp=F
 DIIS: error= 8.22D-03 at cycle   4 NSaved=   4.
 NSaved= 4 IEnMin= 4 EnMin= -3906.61166550428     IErMin= 4 ErrMin= 8.22D-03
 ErrMax= 8.22D-03  0.00D+00 EMaxC= 1.00D-01 BMatC= 6.71D-01 BMatP= 1.66D+00
 IDIUse=3 WtCom= 9.18D-01 WtEn= 8.22D-02
 Coeff-Com: -0.722D-01 0.163D+00 0.354D+00 0.555D+00
 Coeff-En:   0.000D+00 0.000D+00 0.253D+00 0.747D+00
 Coeff:     -0.663D-01 0.150D+00 0.346D+00 0.571D+00
 Gap=     0.260 Goal=   None    Shift=    0.000
 RMSDP=1.00D-03 MaxDP=3.77D-01 DE=-9.67D-01 OVMax= 2.08D-01

 Cycle   5  Pass 1  IDiag  1:
 RMSU=  6.82D-04    CP:  3.41D-01  1.31D-01  9.29D-01  6.18D-01
 E= -3907.08943847084     Delta-E=       -0.477772966553 Rises=F Damp=F
 DIIS: error= 2.76D-03 at cycle   5 NSaved=   5.
 NSaved= 5 IEnMin= 5 EnMin= -3907.08943847084     IErMin= 5 ErrMin= 2.76D-03
 ErrMax= 2.76D-03  0.00D+00 EMaxC= 1.00D-01 BMatC= 6.94D-02 BMatP= 6.71D-01
 IDIUse=3 WtCom= 9.72D-01 WtEn= 2.76D-02
 Coeff-Com: -0.117D-01 0.249D-01 0.104D+00 0.294D+00 0.589D+00
 Coeff-En:   0.000D+00 0.000D+00 0.000D+00 0.220D-01 0.978D+00
 Coeff:     -0.114D-01 0.242D-01 0.101D+00 0.286D+00 0.600D+00
 Gap=     0.219 Goal=   None    Shift=    0.000
 RMSDP=3.35D-04 MaxDP=9.19D-02 DE=-4.78D-01 OVMax= 6.92D-02

 Cycle   6  Pass 1  IDiag  1:
 RMSU=  2.72D-04    CP:  3.37D-01  1.23D-01  9.32D-01  6.83D-01  7.85D-01
 E= -3907.13927133824     Delta-E=       -0.049832867404 Rises=F Damp=F
 DIIS: error= 8.61D-04 at cycle   6 NSaved=   6.
 NSaved= 6 IEnMin= 6 EnMin= -3907.13927133824     IErMin= 6 ErrMin= 8.61D-04
 ErrMax= 8.61D-04  0.00D+00 EMaxC= 1.00D-01 BMatC= 7.36D-03 BMatP= 6.94D-02
 IDIUse=3 WtCom= 9.91D-01 WtEn= 8.61D-03
 Coeff-Com:  0.765D-02-0.156D-01-0.865D-02 0.469D-01 0.294D+00 0.675D+00
 Coeff-En:   0.000D+00 0.000D+00 0.000D+00 0.000D+00 0.000D+00 0.100D+01
 Coeff:      0.759D-02-0.154D-01-0.858D-02 0.465D-01 0.292D+00 0.678D+00
 Gap=     0.223 Goal=   None    Shift=    0.000
 RMSDP=1.26D-04 MaxDP=2.58D-02 DE=-4.98D-02 OVMax= 3.26D-02

 Cycle   7  Pass 1  IDiag  1:
 RMSU=  7.86D-05    CP:  3.34D-01  1.18D-01  9.29D-01  6.84D-01  9.08D-01
                    CP:  8.91D-01
 E= -3907.14652402984     Delta-E=       -0.007252691605 Rises=F Damp=F
 DIIS: error= 2.02D-04 at cycle   7 NSaved=   7.
 NSaved= 7 IEnMin= 7 EnMin= -3907.14652402984     IErMin= 7 ErrMin= 2.02D-04
 ErrMax= 2.02D-04  0.00D+00 EMaxC= 1.00D-01 BMatC= 5.03D-04 BMatP= 7.36D-03
 IDIUse=3 WtCom= 9.98D-01 WtEn= 2.02D-03
 Coeff-Com:  0.399D-03-0.151D-02-0.980D-02-0.174D-01 0.711D-02 0.206D+00
 Coeff-Com:  0.815D+00
 Coeff-En:   0.000D+00 0.000D+00 0.000D+00 0.000D+00 0.000D+00 0.000D+00
 Coeff-En:   0.100D+01
 Coeff:      0.398D-03-0.151D-02-0.978D-02-0.174D-01 0.709D-02 0.205D+00
 Coeff:      0.816D+00
 Gap=     0.224 Goal=   None    Shift=    0.000
 RMSDP=3.67D-05 MaxDP=7.16D-03 DE=-7.25D-03 OVMax= 1.17D-02

 Cycle   8  Pass 1  IDiag  1:
 RMSU=  2.51D-05    CP:  3.33D-01  1.17D-01  9.29D-01  6.82D-01  9.28D-01
                    CP:  9.51D-01  1.13D+00
 E= -3907.14728458272     Delta-E=       -0.000760552879 Rises=F Damp=F
 DIIS: error= 7.36D-05 at cycle   8 NSaved=   8.
 NSaved= 8 IEnMin= 8 EnMin= -3907.14728458272     IErMin= 8 ErrMin= 7.36D-05
 ErrMax= 7.36D-05  0.00D+00 EMaxC= 1.00D-01 BMatC= 6.64D-05 BMatP= 5.03D-04
 IDIUse=1 WtCom= 1.00D+00 WtEn= 0.00D+00
 Coeff-Com: -0.934D-03 0.139D-02-0.280D-02-0.107D-01-0.287D-01 0.104D-01
 Coeff-Com:  0.290D+00 0.741D+00
 Coeff:     -0.934D-03 0.139D-02-0.280D-02-0.107D-01-0.287D-01 0.104D-01
 Coeff:      0.290D+00 0.741D+00
 Gap=     0.225 Goal=   None    Shift=    0.000
 RMSDP=1.64D-05 MaxDP=3.85D-03 DE=-7.61D-04 OVMax= 6.42D-03

 Cycle   9  Pass 1  IDiag  1:
 RMSU=  1.08D-05    CP:  3.32D-01  1.17D-01  9.29D-01  6.80D-01  9.30D-01
                    CP:  9.79D-01  1.20D+00  1.28D+00
 E= -3907.14742834226     Delta-E=       -0.000143759537 Rises=F Damp=F
 DIIS: error= 3.13D-05 at cycle   9 NSaved=   9.
 NSaved= 9 IEnMin= 9 EnMin= -3907.14742834226     IErMin= 9 ErrMin= 3.13D-05
 ErrMax= 3.13D-05  0.00D+00 EMaxC= 1.00D-01 BMatC= 1.55D-05 BMatP= 6.64D-05
 IDIUse=1 WtCom= 1.00D+00 WtEn= 0.00D+00
 Coeff-Com:  0.620D-05 0.410D-04 0.309D-03-0.109D-02-0.153D-01-0.383D-01
 Coeff-Com: -0.491D-01 0.267D+00 0.837D+00
 Coeff:      0.620D-05 0.410D-04 0.309D-03-0.109D-02-0.153D-01-0.383D-01
 Coeff:     -0.491D-01 0.267D+00 0.837D+00
 Gap=     0.225 Goal=   None    Shift=    0.000
 RMSDP=1.02D-05 MaxDP=1.20D-03 DE=-1.44D-04 OVMax= 5.28D-03

 Cycle  10  Pass 1  IDiag  1:
 RMSU=  4.52D-06    CP:  3.32D-01  1.17D-01  9.29D-01  6.80D-01  9.34D-01
                    CP:  9.79D-01  1.26D+00  1.52D+00  1.37D+00
 E= -3907.14747124487     Delta-E=       -0.000042902606 Rises=F Damp=F
 DIIS: error= 1.62D-05 at cycle  10 NSaved=  10.
 NSaved=10 IEnMin=10 EnMin= -3907.14747124487     IErMin=10 ErrMin= 1.62D-05
 ErrMax= 1.62D-05  0.00D+00 EMaxC= 1.00D-01 BMatC= 3.38D-06 BMatP= 1.55D-05
 IDIUse=1 WtCom= 1.00D+00 WtEn= 0.00D+00
 Coeff-Com:  0.398D-03-0.501D-03 0.679D-03 0.140D-02-0.312D-02-0.175D-01
 Coeff-Com: -0.695D-01-0.375D-01 0.299D+00 0.826D+00
 Coeff:      0.398D-03-0.501D-03 0.679D-03 0.140D-02-0.312D-02-0.175D-01
 Coeff:     -0.695D-01-0.375D-01 0.299D+00 0.826D+00
 Gap=     0.225 Goal=   None    Shift=    0.000
 RMSDP=5.38D-06 MaxDP=1.08D-03 DE=-4.29D-05 OVMax= 2.72D-03

 Cycle  11  Pass 1  IDiag  1:
 RMSU=  2.41D-06    CP:  3.32D-01  1.17D-01  9.29D-01  6.80D-01  9.35D-01
                    CP:  9.81D-01  1.28D+00  1.66D+00  1.59D+00  1.25D+00
 E= -3907.14747997352     Delta-E=       -0.000008728650 Rises=F Damp=F
 DIIS: error= 7.23D-06 at cycle  11 NSaved=  11.
 NSaved=11 IEnMin=11 EnMin= -3907.14747997352     IErMin=11 ErrMin= 7.23D-06
 ErrMax= 7.23D-06  0.00D+00 EMaxC= 1.00D-01 BMatC= 6.79D-07 BMatP= 3.38D-06
 IDIUse=1 WtCom= 1.00D+00 WtEn= 0.00D+00
 Coeff-Com:  0.218D-03-0.251D-03 0.405D-03 0.552D-03-0.669D-03-0.118D-02
 Coeff-Com: -0.119D-01-0.397D-01-0.286D-01 0.247D+00 0.834D+00
 Coeff:      0.218D-03-0.251D-03 0.405D-03 0.552D-03-0.669D-03-0.118D-02
 Coeff:     -0.119D-01-0.397D-01-0.286D-01 0.247D+00 0.834D+00
 Gap=     0.225 Goal=   None    Shift=    0.000
 RMSDP=2.14D-06 MaxDP=5.23D-04 DE=-8.73D-06 OVMax= 1.11D-03

 Cycle  12  Pass 1  IDiag  1:
 RMSU=  8.52D-07    CP:  3.32D-01  1.16D-01  9.29D-01  6.80D-01  9.35D-01
                    CP:  9.82D-01  1.28D+00  1.69D+00  1.67D+00  1.44D+00
                    CP:  1.41D+00
 E= -3907.14748166426     Delta-E=       -0.000001690749 Rises=F Damp=F
 DIIS: error= 3.67D-06 at cycle  12 NSaved=  12.
 NSaved=12 IEnMin=12 EnMin= -3907.14748166426     IErMin=12 ErrMin= 3.67D-06
 ErrMax= 3.67D-06  0.00D+00 EMaxC= 1.00D-01 BMatC= 1.56D-07 BMatP= 6.79D-07
 IDIUse=1 WtCom= 1.00D+00 WtEn= 0.00D+00
 Coeff-Com:  0.553D-04-0.643D-04 0.116D-03-0.466D-04-0.101D-03 0.277D-02
 Coeff-Com:  0.952D-02-0.384D-02-0.608D-01-0.939D-01 0.286D+00 0.860D+00
 Coeff:      0.553D-04-0.643D-04 0.116D-03-0.466D-04-0.101D-03 0.277D-02
 Coeff:      0.952D-02-0.384D-02-0.608D-01-0.939D-01 0.286D+00 0.860D+00
 Gap=     0.225 Goal=   None    Shift=    0.000
 RMSDP=1.17D-06 MaxDP=2.58D-04 DE=-1.69D-06 OVMax= 5.87D-04

 Cycle  13  Pass 1  IDiag  1:
 RMSU=  4.18D-07    CP:  3.32D-01  1.16D-01  9.29D-01  6.79D-01  9.34D-01
                    CP:  9.82D-01  1.28D+00  1.71D+00  1.70D+00  1.53D+00
                    CP:  1.70D+00  1.37D+00
 E= -3907.14748210396     Delta-E=       -0.000000439695 Rises=F Damp=F
 DIIS: error= 2.20D-06 at cycle  13 NSaved=  13.
 NSaved=13 IEnMin=13 EnMin= -3907.14748210396     IErMin=13 ErrMin= 2.20D-06
 ErrMax= 2.20D-06  0.00D+00 EMaxC= 1.00D-01 BMatC= 3.32D-08 BMatP= 1.56D-07
 IDIUse=1 WtCom= 1.00D+00 WtEn= 0.00D+00
 Coeff-Com: -0.131D-05-0.342D-05-0.193D-04-0.124D-03 0.986D-04 0.158D-02
 Coeff-Com:  0.638D-02 0.603D-02-0.169D-01-0.987D-01-0.552D-01 0.381D+00
 Coeff-Com:  0.776D+00
 Coeff:     -0.131D-05-0.342D-05-0.193D-04-0.124D-03 0.986D-04 0.158D-02
 Coeff:      0.638D-02 0.603D-02-0.169D-01-0.987D-01-0.552D-01 0.381D+00
 Coeff:      0.776D+00
 Gap=     0.225 Goal=   None    Shift=    0.000
 RMSDP=5.73D-07 MaxDP=1.76D-04 DE=-4.40D-07 OVMax= 2.87D-04

 Cycle  14  Pass 1  IDiag  1:
 RMSU=  2.06D-07    CP:  3.32D-01  1.16D-01  9.29D-01  6.79D-01  9.34D-01
                    CP:  9.82D-01  1.28D+00  1.71D+00  1.71D+00  1.56D+00
                    CP:  1.82D+00  1.66D+00  1.37D+00
 E= -3907.14748219896     Delta-E=       -0.000000094997 Rises=F Damp=F
 DIIS: error= 6.88D-07 at cycle  14 NSaved=  14.
 NSaved=14 IEnMin=14 EnMin= -3907.14748219896     IErMin=14 ErrMin= 6.88D-07
 ErrMax= 6.88D-07  0.00D+00 EMaxC= 1.00D-01 BMatC= 5.60D-09 BMatP= 3.32D-08
 IDIUse=1 WtCom= 1.00D+00 WtEn= 0.00D+00
 Coeff-Com: -0.562D-05 0.391D-05-0.376D-04-0.553D-04 0.200D-04 0.128D-03
 Coeff-Com:  0.107D-02 0.299D-02 0.364D-02-0.236D-01-0.715D-01-0.220D-01
 Coeff-Com:  0.306D+00 0.803D+00
 Coeff:     -0.562D-05 0.391D-05-0.376D-04-0.553D-04 0.200D-04 0.128D-03
 Coeff:      0.107D-02 0.299D-02 0.364D-02-0.236D-01-0.715D-01-0.220D-01
 Coeff:      0.306D+00 0.803D+00
 Gap=     0.225 Goal=   None    Shift=    0.000
 RMSDP=2.34D-07 MaxDP=5.68D-05 DE=-9.50D-08 OVMax= 1.42D-04

 Cycle  15  Pass 1  IDiag  1:
 RMSU=  8.15D-08    CP:  3.32D-01  1.16D-01  9.29D-01  6.79D-01  9.34D-01
                    CP:  9.82D-01  1.28D+00  1.71D+00  1.72D+00  1.57D+00
                    CP:  1.85D+00  1.77D+00  1.62D+00  1.31D+00
 E= -3907.14748221628     Delta-E=       -0.000000017324 Rises=F Damp=F
 DIIS: error= 3.41D-07 at cycle  15 NSaved=  15.
 NSaved=15 IEnMin=15 EnMin= -3907.14748221628     IErMin=15 ErrMin= 3.41D-07
 ErrMax= 3.41D-07  0.00D+00 EMaxC= 1.00D-01 BMatC= 9.93D-10 BMatP= 5.60D-09
 IDIUse=1 WtCom= 1.00D+00 WtEn= 0.00D+00
 Coeff-Com:  0.145D-06-0.469D-06-0.121D-04-0.107D-05-0.490D-04-0.206D-03
 Coeff-Com: -0.329D-03 0.443D-04 0.170D-02 0.762D-02-0.633D-02-0.624D-01
 Coeff-Com: -0.523D-01 0.195D+00 0.917D+00
 Coeff:      0.145D-06-0.469D-06-0.121D-04-0.107D-05-0.490D-04-0.206D-03
 Coeff:     -0.329D-03 0.443D-04 0.170D-02 0.762D-02-0.633D-02-0.624D-01
 Coeff:     -0.523D-01 0.195D+00 0.917D+00
 Gap=     0.225 Goal=   None    Shift=    0.000
 RMSDP=1.04D-07 MaxDP=1.77D-05 DE=-1.73D-08 OVMax= 6.38D-05

 Cycle  16  Pass 1  IDiag  1:
 RMSU=  3.85D-08    CP:  3.32D-01  1.16D-01  9.29D-01  6.79D-01  9.34D-01
                    CP:  9.82D-01  1.28D+00  1.71D+00  1.72D+00  1.57D+00
                    CP:  1.86D+00  1.80D+00  1.72D+00  1.54D+00  1.46D+00
 E= -3907.14748222011     Delta-E=       -0.000000003831 Rises=F Damp=F
 DIIS: error= 1.58D-07 at cycle  16 NSaved=  16.
 NSaved=16 IEnMin=16 EnMin= -3907.14748222011     IErMin=16 ErrMin= 1.58D-07
 ErrMax= 1.58D-07  0.00D+00 EMaxC= 1.00D-01 BMatC= 2.74D-10 BMatP= 9.93D-10
 IDIUse=1 WtCom= 1.00D+00 WtEn= 0.00D+00
 Coeff-Com:  0.424D-06-0.530D-07 0.824D-06 0.851D-05-0.450D-04-0.132D-03
 Coeff-Com: -0.240D-03-0.294D-03-0.882D-05 0.728D-02 0.105D-01-0.227D-01
 Coeff-Com: -0.843D-01-0.732D-01 0.424D+00 0.740D+00
 Coeff:      0.424D-06-0.530D-07 0.824D-06 0.851D-05-0.450D-04-0.132D-03
 Coeff:     -0.240D-03-0.294D-03-0.882D-05 0.728D-02 0.105D-01-0.227D-01
 Coeff:     -0.843D-01-0.732D-01 0.424D+00 0.740D+00
 Gap=     0.225 Goal=   None    Shift=    0.000
 RMSDP=4.98D-08 MaxDP=1.03D-05 DE=-3.83D-09 OVMax= 2.54D-05

 Cycle  17  Pass 1  IDiag  1:
 RMSU=  2.14D-08    CP:  3.32D-01  1.16D-01  9.29D-01  6.79D-01  9.34D-01
                    CP:  9.82D-01  1.28D+00  1.71D+00  1.72D+00  1.57D+00
                    CP:  1.86D+00  1.82D+00  1.75D+00  1.66D+00  1.73D+00
                    CP:  1.37D+00
 E= -3907.14748222120     Delta-E=       -0.000000001088 Rises=F Damp=F
 DIIS: error= 9.49D-08 at cycle  17 NSaved=  17.
 NSaved=17 IEnMin=17 EnMin= -3907.14748222120     IErMin=17 ErrMin= 9.49D-08
 ErrMax= 9.49D-08  0.00D+00 EMaxC= 1.00D-01 BMatC= 3.68D-11 BMatP= 2.74D-10
 IDIUse=1 WtCom= 1.00D+00 WtEn= 0.00D+00
 Coeff-Com: -0.267D-06 0.584D-06 0.345D-05 0.334D-05-0.733D-05-0.396D-05
 Coeff-Com: -0.348D-06-0.499D-04-0.249D-03 0.570D-03 0.453D-02 0.554D-02
 Coeff-Com: -0.146D-01-0.592D-01-0.721D-01 0.212D+00 0.924D+00
 Coeff:     -0.267D-06 0.584D-06 0.345D-05 0.334D-05-0.733D-05-0.396D-05
 Coeff:     -0.348D-06-0.499D-04-0.249D-03 0.570D-03 0.453D-02 0.554D-02
 Coeff:     -0.146D-01-0.592D-01-0.721D-01 0.212D+00 0.924D+00
 Gap=     0.225 Goal=   None    Shift=    0.000
 RMSDP=3.28D-08 MaxDP=4.57D-06 DE=-1.09D-09 OVMax= 1.48D-05

 Cycle  18  Pass 1  IDiag  1:
 RMSU=  1.73D-08    CP:  3.32D-01  1.16D-01  9.29D-01  6.79D-01  9.34D-01
                    CP:  9.82D-01  1.28D+00  1.71D+00  1.72D+00  1.57D+00
                    CP:  1.86D+00  1.81D+00  1.76D+00  1.71D+00  1.89D+00
                    CP:  1.79D+00  1.68D+00
 E= -3907.14748222245     Delta-E=       -0.000000001250 Rises=F Damp=F
 DIIS: error= 4.09D-08 at cycle  18 NSaved=  18.
 NSaved=18 IEnMin=18 EnMin= -3907.14748222245     IErMin=18 ErrMin= 4.09D-08
 ErrMax= 4.09D-08  0.00D+00 EMaxC= 1.00D-01 BMatC= 8.71D-12 BMatP= 3.68D-11
 IDIUse=1 WtCom= 1.00D+00 WtEn= 0.00D+00
 Coeff-Com: -0.125D-06 0.157D-06 0.101D-05-0.413D-06 0.891D-05 0.232D-04
 Coeff-Com:  0.317D-04 0.119D-04-0.524D-04-0.105D-02-0.514D-03 0.522D-02
 Coeff-Com:  0.108D-01 0.233D-03-0.923D-01-0.820D-01 0.239D+00 0.920D+00
 Coeff:     -0.125D-06 0.157D-06 0.101D-05-0.413D-06 0.891D-05 0.232D-04
 Coeff:      0.317D-04 0.119D-04-0.524D-04-0.105D-02-0.514D-03 0.522D-02
 Coeff:      0.108D-01 0.233D-03-0.923D-01-0.820D-01 0.239D+00 0.920D+00
 Gap=     0.225 Goal=   None    Shift=    0.000
 RMSDP=2.97D-08 MaxDP=3.17D-06 DE=-1.25D-09 OVMax= 7.55D-06

 Cycle  19  Pass 1  IDiag  1:
 RMSU=  1.38D-08    CP:  3.32D-01  1.16D-01  9.29D-01  6.79D-01  9.34D-01
                    CP:  9.82D-01  1.28D+00  1.71D+00  1.72D+00  1.57D+00
                    CP:  1.86D+00  1.81D+00  1.75D+00  1.72D+00  1.95D+00
                    CP:  2.06D+00  2.36D+00  2.02D+00
 E= -3907.14748222300     Delta-E=       -0.000000000549 Rises=F Damp=F
 DIIS: error= 3.18D-08 at cycle  19 NSaved=  19.
 NSaved=19 IEnMin=19 EnMin= -3907.14748222300     IErMin=19 ErrMin= 3.18D-08
 ErrMax= 3.18D-08  0.00D+00 EMaxC= 1.00D-01 BMatC= 2.78D-12 BMatP= 8.71D-12
 IDIUse=1 WtCom= 1.00D+00 WtEn= 0.00D+00
 Coeff-Com:  0.106D-06-0.180D-06-0.279D-06-0.850D-06 0.551D-05 0.851D-05
 Coeff-Com:  0.113D-04-0.226D-05-0.165D-04-0.420D-03-0.871D-03 0.596D-03
 Coeff-Com:  0.569D-02 0.112D-01-0.163D-01-0.702D-01-0.113D+00 0.289D+00
 Coeff-Com:  0.895D+00
 Coeff:      0.106D-06-0.180D-06-0.279D-06-0.850D-06 0.551D-05 0.851D-05
 Coeff:      0.113D-04-0.226D-05-0.165D-04-0.420D-03-0.871D-03 0.596D-03
 Coeff:      0.569D-02 0.112D-01-0.163D-01-0.702D-01-0.113D+00 0.289D+00
 Coeff:      0.895D+00
 Gap=     0.225 Goal=   None    Shift=    0.000
 RMSDP=3.70D-08 MaxDP=2.30D-06 DE=-5.49D-10 OVMax= 4.51D-06

 Cycle  20  Pass 1  IDiag  1:
 RMSU=  1.53D-08    CP:  3.32D-01  1.16D-01  9.29D-01  6.79D-01  9.34D-01
                    CP:  9.82D-01  1.28D+00  1.71D+00  1.72D+00  1.57D+00
                    CP:  1.86D+00  1.81D+00  1.75D+00  1.73D+00  1.98D+00
                    CP:  2.25D+00  2.98D+00  3.00D+00  2.37D+00
 E= -3907.14748222219     Delta-E=        0.000000000804 Rises=F Damp=F
 DIIS: error= 5.09D-08 at cycle  20 NSaved=  20.
 NSaved=20 IEnMin=19 EnMin= -3907.14748222300     IErMin=19 ErrMin= 3.18D-08
 ErrMax= 5.09D-08  0.00D+00 EMaxC= 1.00D-01 BMatC= 2.22D-12 BMatP= 2.78D-12
 IDIUse=1 WtCom= 1.00D+00 WtEn= 0.00D+00
 Coeff-Com:  0.840D-07-0.138D-06-0.201D-06-0.612D-06 0.376D-05 0.541D-05
 Coeff-Com:  0.869D-05 0.454D-06-0.165D-04-0.287D-03-0.602D-03 0.356D-03
 Coeff-Com:  0.387D-02 0.794D-02-0.101D-01-0.481D-01-0.844D-01 0.183D+00
 Coeff-Com:  0.638D+00 0.311D+00
 Coeff:      0.840D-07-0.138D-06-0.201D-06-0.612D-06 0.376D-05 0.541D-05
 Coeff:      0.869D-05 0.454D-06-0.165D-04-0.287D-03-0.602D-03 0.356D-03
 Coeff:      0.387D-02 0.794D-02-0.101D-01-0.481D-01-0.844D-01 0.183D+00
 Coeff:      0.638D+00 0.311D+00
 Gap=     0.225 Goal=   None    Shift=    0.000
 RMSDP=1.58D-08 MaxDP=9.62D-07 DE= 8.04D-10 OVMax= 5.32D-07

 Cycle  21  Pass 1  IDiag  1:
 Restarting incremental Fock formation.
 E= -3907.14748222298     Delta-E=       -0.000000000784 Rises=F Damp=F
 DIIS: error= 1.33D-07 at cycle  21 NSaved=  20.
 NSaved=20 IEnMin=18 EnMin= -3907.14748222300     IErMin=18 ErrMin= 3.18D-08
 ErrMax= 1.33D-07  0.00D+00 EMaxC= 1.00D-01 BMatC= 3.73D-11 BMatP= 2.22D-12
 IDIUse=1 WtCom= 1.00D+00 WtEn= 0.00D+00
 Coeff-Com: -0.752D-08-0.222D-06-0.624D-06 0.255D-05 0.352D-05 0.112D-04
 Coeff-Com:  0.125D-04-0.149D-04-0.266D-03-0.586D-03 0.142D-03 0.311D-02
 Coeff-Com:  0.686D-02-0.577D-02-0.371D-01-0.781D-01 0.108D+00 0.505D+00
 Coeff-Com:  0.395D+00 0.104D+00
 Coeff:     -0.752D-08-0.222D-06-0.624D-06 0.255D-05 0.352D-05 0.112D-04
 Coeff:      0.125D-04-0.149D-04-0.266D-03-0.586D-03 0.142D-03 0.311D-02
 Coeff:      0.686D-02-0.577D-02-0.371D-01-0.781D-01 0.108D+00 0.505D+00
 Coeff:      0.395D+00 0.104D+00
 Gap=     0.225 Goal=   None    Shift=    0.000
 RMSDP=2.06D-08 MaxDP=2.21D-06 DE=-7.84D-10 OVMax= 5.55D-07

 Cycle  22  Pass 1  IDiag  1:
 RMSU=  2.06D-08    CP:  1.00D+00
 E= -3907.14748222250     Delta-E=        0.000000000482 Rises=F Damp=F
 DIIS: error= 1.22D-07 at cycle  22 NSaved=  20.
 NSaved=20 IEnMin=17 EnMin= -3907.14748222300     IErMin=17 ErrMin= 3.18D-08
 ErrMax= 1.22D-07  0.00D+00 EMaxC= 1.00D-01 BMatC= 3.19D-11 BMatP= 2.22D-12
 IDIUse=1 WtCom= 1.00D+00 WtEn= 0.00D+00
 Coeff-Com: -0.117D-06-0.134D-06 0.143D-05 0.409D-06-0.448D-06-0.178D-05
 Coeff-Com:  0.659D-06-0.445D-04-0.211D-03-0.152D-03 0.122D-02 0.393D-02
 Coeff-Com:  0.233D-03-0.187D-01-0.542D-01 0.307D-01 0.298D+00 0.532D+00
 Coeff-Com: -0.132D+01 0.152D+01
 Coeff:     -0.117D-06-0.134D-06 0.143D-05 0.409D-06-0.448D-06-0.178D-05
 Coeff:      0.659D-06-0.445D-04-0.211D-03-0.152D-03 0.122D-02 0.393D-02
 Coeff:      0.233D-03-0.187D-01-0.542D-01 0.307D-01 0.298D+00 0.532D+00
 Coeff:     -0.132D+01 0.152D+01
 Gap=     0.225 Goal=   None    Shift=    0.000
 RMSDP=3.03D-08 MaxDP=2.16D-06 DE= 4.82D-10 OVMax= 8.90D-07

 Cycle  23  Pass 1  IDiag  1:
 RMSU=  2.13D-08    CP:  1.00D+00  2.04D+00
 E= -3907.14748222251     Delta-E=       -0.000000000018 Rises=F Damp=F
 DIIS: error= 1.17D-07 at cycle  23 NSaved=  20.
 NSaved=20 IEnMin=16 EnMin= -3907.14748222300     IErMin=16 ErrMin= 3.18D-08
 ErrMax= 1.17D-07  0.00D+00 EMaxC= 1.00D-01 BMatC= 2.76D-11 BMatP= 2.22D-12
 IDIUse=1 WtCom= 1.00D+00 WtEn= 0.00D+00
 Coeff-Com: -0.590D-07 0.967D-06 0.570D-06 0.219D-05 0.656D-06-0.144D-04
 Coeff-Com: -0.727D-04-0.125D-03 0.671D-04 0.869D-03 0.207D-02-0.134D-02
 Coeff-Com: -0.123D-01-0.323D-01 0.223D-01 0.213D+00 0.555D+00-0.110D+01
 Coeff-Com:  0.319D+00 0.103D+01
 Coeff:     -0.590D-07 0.967D-06 0.570D-06 0.219D-05 0.656D-06-0.144D-04
 Coeff:     -0.727D-04-0.125D-03 0.671D-04 0.869D-03 0.207D-02-0.134D-02
 Coeff:     -0.123D-01-0.323D-01 0.223D-01 0.213D+00 0.555D+00-0.110D+01
 Coeff:      0.319D+00 0.103D+01
 Gap=     0.225 Goal=   None    Shift=    0.000
 RMSDP=2.79D-08 MaxDP=2.13D-06 DE=-1.82D-11 OVMax= 5.23D-07

 Cycle  24  Pass 1  IDiag  1:
 RMSU=  1.61D-08    CP:  1.00D+00  2.88D+00  1.70D+00
 E= -3907.14748222205     Delta-E=        0.000000000460 Rises=F Damp=F
 DIIS: error= 1.19D-07 at cycle  24 NSaved=  20.
 NSaved=20 IEnMin=15 EnMin= -3907.14748222300     IErMin=15 ErrMin= 3.18D-08
 ErrMax= 1.19D-07  0.00D+00 EMaxC= 1.00D-01 BMatC= 2.55D-11 BMatP= 2.22D-12
 IDIUse=1 WtCom= 1.00D+00 WtEn= 0.00D+00
 Coeff-Com:  0.838D-06-0.639D-07 0.330D-07 0.685D-06-0.393D-05-0.428D-04
 Coeff-Com: -0.138D-03-0.770D-04 0.651D-03 0.203D-02 0.138D-03-0.102D-01
 Coeff-Com: -0.316D-01 0.115D-01 0.191D+00 0.581D+00-0.813D+00-0.142D-01
 Coeff-Com:  0.508D+00 0.575D+00
 Coeff:      0.838D-06-0.639D-07 0.330D-07 0.685D-06-0.393D-05-0.428D-04
 Coeff:     -0.138D-03-0.770D-04 0.651D-03 0.203D-02 0.138D-03-0.102D-01
 Coeff:     -0.316D-01 0.115D-01 0.191D+00 0.581D+00-0.813D+00-0.142D-01
 Coeff:      0.508D+00 0.575D+00
 Gap=     0.225 Goal=   None    Shift=    0.000
 RMSDP=1.54D-08 MaxDP=1.28D-06 DE= 4.60D-10 OVMax= 1.66D-07

 Cycle  25  Pass 1  IDiag  1:
 RMSU=  8.72D-09    CP:  1.00D+00  3.00D+00  2.12D+00  1.50D+00
 E= -3907.14748222367     Delta-E=       -0.000000001619 Rises=F Damp=F
 DIIS: error= 1.17D-07 at cycle  25 NSaved=  20.
 NSaved=20 IEnMin=20 EnMin= -3907.14748222367     IErMin=14 ErrMin= 3.18D-08
 ErrMax= 1.17D-07  0.00D+00 EMaxC= 1.00D-01 BMatC= 2.58D-11 BMatP= 2.22D-12
 IDIUse=1 WtCom= 1.00D+00 WtEn= 0.00D+00
 Coeff-Com: -0.197D-05-0.243D-05 0.245D-05 0.679D-05 0.195D-04-0.657D-04
 Coeff-Com: -0.261D-03 0.323D-04 0.147D-02 0.296D-02-0.537D-02-0.305D-01
 Coeff-Com: -0.767D-02 0.172D+00 0.610D+00-0.825D+00 0.178D-01 0.474D+00
 Coeff-Com:  0.488D+00 0.103D+00
 Coeff:     -0.197D-05-0.243D-05 0.245D-05 0.679D-05 0.195D-04-0.657D-04
 Coeff:     -0.261D-03 0.323D-04 0.147D-02 0.296D-02-0.537D-02-0.305D-01
 Coeff:     -0.767D-02 0.172D+00 0.610D+00-0.825D+00 0.178D-01 0.474D+00
 Coeff:      0.488D+00 0.103D+00
 Gap=     0.225 Goal=   None    Shift=    0.000
 RMSDP=2.54D-09 MaxDP=1.99D-07 DE=-1.62D-09 OVMax= 4.92D-08

 Error on total polarization charges =  0.06729
 SCF Done:  E(RwB97XD) =  -3907.14748222     A.U. after   25 cycles
            NFock= 25  Conv=0.25D-08     -V/T= 2.0247
 KE= 3.813024725392D+03 PE=-3.016332729689D+04 EE= 1.194364820238D+04
 SMD-CDS (non-electrostatic) energy       (kcal/mol) =     -11.94
 (included in total energy above)
 Leave Link  502 at Sun Mar  3 17:26:14 2024, MaxMem=  2147483648 cpu:    132371.4
 (Enter /cluster/apps/gaussian/g09/l601.exe)
 Copying SCF densities to generalized density rwf, IOpCl= 0 IROHF=0.

 **********************************************************************

            Population analysis using the SCF density.

 **********************************************************************

 Orbital symmetries:
       Occupied  (A) (A) (A) (A) (A) (A) (A) (A) (A) (A) (A) (A)
                 (A) (A) (A) (A) (A) (A) (A) (A) (A) (A) (A) (A)
                 (A) (A) (A) (A) (A) (A) (A) (A) (A) (A) (A) (A)
                 (A) (A) (A) (A) (A) (A) (A) (A) (A) (A) (A) (A)
                 (A) (A) (A) (A) (A) (A) (A) (A) (A) (A) (A) (A)
                 (A) (A) (A) (A) (A) (A) (A) (A) (A) (A) (A) (A)
                 (A) (A) (A) (A) (A) (A) (A) (A) (A) (A) (A) (A)
                 (A) (A) (A) (A) (A) (A) (A) (A) (A) (A) (A) (A)
                 (A) (A) (A) (A) (A) (A) (A) (A) (A) (A) (A) (A)
                 (A) (A) (A) (A) (A) (A) (A) (A) (A) (A) (A) (A)
                 (A) (A) (A) (A) (A) (A) (A) (A) (A) (A) (A) (A)
                 (A) (A) (A) (A) (A) (A) (A) (A) (A) (A) (A) (A)
                 (A) (A) (A) (A) (A) (A) (A) (A) (A) (A) (A) (A)
                 (A) (A) (A) (A) (A) (A) (A) (A) (A) (A) (A) (A)
                 (A) (A) (A) (A) (A) (A) (A) (A) (A) (A) (A) (A)
                 (A) (A) (A) (A) (A) (A) (A) (A) (A) (A) (A) (A)
                 (A) (A) (A) (A) (A) (A) (A) (A) (A) (A) (A) (A)
                 (A) (A) (A) (A) (A) (A) (A) (A) (A) (A) (A) (A)
                 (A) (A) (A) (A) (A) (A)
       Virtual   (A) (A) (A) (A) (A) (A) (A) (A) (A) (A) (A) (A)
                 (A) (A) (A) (A) (A) (A) (A) (A) (A) (A) (A) (A)
                 (A) (A) (A) (A) (A) (A) (A) (A) (A) (A) (A) (A)
                 (A) (A) (A) (A) (A) (A) (A) (A) (A) (A) (A) (A)
                 (A) (A) (A) (A) (A) (A) (A) (A) (A) (A) (A) (A)
                 (A) (A) (A) (A) (A) (A) (A) (A) (A) (A) (A) (A)
                 (A) (A) (A) (A) (A) (A) (A) (A) (A) (A) (A) (A)
                 (A) (A) (A) (A) (A) (A) (A) (A) (A) (A) (A) (A)
                 (A) (A) (A) (A) (A) (A) (A) (A) (A) (A) (A) (A)
                 (A) (A) (A) (A) (A) (A) (A) (A) (A) (A) (A) (A)
                 (A) (A) (A) (A) (A) (A) (A) (A) (A) (A) (A) (A)
                 (A) (A) (A) (A) (A) (A) (A) (A) (A) (A) (A) (A)
                 (A) (A) (A) (A) (A) (A) (A) (A) (A) (A) (A) (A)
                 (A) (A) (A) (A) (A) (A) (A) (A) (A) (A) (A) (A)
                 (A) (A) (A) (A) (A) (A) (A) (A) (A) (A) (A) (A)
                 (A) (A) (A) (A) (A) (A) (A) (A) (A) (A) (A) (A)
                 (A) (A) (A) (A) (A) (A) (A) (A) (A) (A) (A) (A)
                 (A) (A) (A) (A) (A) (A) (A) (A) (A) (A) (A) (A)
                 (A) (A) (A) (A) (A) (A) (A) (A) (A) (A) (A) (A)
                 (A) (A) (A) (A) (A) (A) (A) (A) (A) (A) (A) (A)
                 (A) (A) (A) (A) (A) (A) (A) (A) (A) (A) (A) (A)
                 (A) (A) (A) (A) (A) (A) (A) (A) (A) (A) (A) (A)
                 (A) (A) (A) (A) (A) (A) (A) (A) (A) (A) (A) (A)
                 (A) (A) (A) (A) (A) (A) (A) (A) (A) (A) (A) (A)
                 (A) (A) (A) (A) (A) (A) (A) (A) (A) (A) (A) (A)
                 (A) (A) (A) (A) (A) (A) (A) (A) (A) (A) (A) (A)
                 (A) (A) (A) (A) (A) (A) (A) (A) (A) (A) (A) (A)
                 (A) (A) (A) (A) (A) (A) (A) (A) (A) (A) (A) (A)
                 (A) (A) (A) (A) (A) (A) (A) (A) (A) (A) (A) (A)
                 (A) (A) (A) (A) (A) (A) (A) (A) (A) (A) (A) (A)
                 (A) (A) (A) (A) (A) (A) (A) (A) (A) (A) (A) (A)
                 (A) (A) (A) (A) (A) (A) (A) (A) (A) (A) (A) (A)
                 (A) (A) (A) (A) (A) (A) (A) (A) (A) (A) (A) (A)
                 (A) (A) (A) (A) (A) (A) (A) (A) (A) (A) (A) (A)
                 (A) (A) (A) (A) (A) (A) (A) (A) (A) (A) (A) (A)
                 (A) (A) (A) (A) (A) (A) (A) (A) (A) (A) (A) (A)
                 (A) (A) (A) (A) (A) (A) (A) (A) (A) (A) (A) (A)
                 (A) (A) (A) (A) (A) (A) (A) (A) (A) (A) (A) (A)
                 (A) (A) (A) (A) (A) (A) (A) (A) (A) (A) (A) (A)
                 (A) (A) (A) (A) (A) (A) (A) (A) (A) (A) (A) (A)
                 (A) (A) (A) (A) (A) (A) (A) (A) (A) (A) (A) (A)
                 (A) (A) (A) (A) (A) (A) (A) (A) (A) (A) (A) (A)
                 (A) (A) (A) (A) (A) (A) (A) (A) (A) (A) (A) (A)
                 (A) (A) (A) (A) (A) (A) (A) (A) (A) (A) (A) (A)
                 (A) (A) (A) (A) (A) (A) (A) (A) (A) (A) (A) (A)
                 (A) (A) (A) (A) (A) (A) (A) (A) (A) (A) (A) (A)
                 (A) (A) (A) (A) (A) (A) (A) (A) (A) (A) (A) (A)
                 (A) (A) (A) (A) (A) (A) (A) (A) (A) (A) (A) (A)
                 (A) (A) (A) (A) (A) (A) (A) (A) (A) (A) (A) (A)
                 (A) (A) (A) (A) (A) (A) (A) (A) (A) (A) (A) (A)
                 (A) (A) (A) (A) (A) (A) (A) (A) (A) (A) (A) (A)
                 (A) (A) (A) (A) (A) (A) (A) (A) (A) (A) (A) (A)
                 (A) (A) (A) (A) (A) (A) (A) (A) (A) (A) (A) (A)
                 (A) (A) (A) (A) (A) (A) (A) (A) (A) (A) (A) (A)
                 (A) (A) (A) (A) (A) (A) (A) (A) (A) (A) (A) (A)
                 (A) (A) (A) (A) (A) (A) (A) (A) (A) (A) (A) (A)
                 (A) (A) (A) (A) (A) (A) (A) (A) (A) (A) (A) (A)
                 (A) (A) (A) (A) (A) (A) (A) (A) (A) (A) (A) (A)
                 (A) (A) (A) (A) (A) (A) (A) (A) (A) (A) (A) (A)
                 (A) (A) (A) (A) (A) (A) (A) (A) (A) (A) (A) (A)
                 (A) (A) (A) (A) (A) (A) (A) (A) (A) (A) (A) (A)
                 (A) (A) (A) (A) (A) (A) (A) (A) (A) (A) (A) (A)
                 (A) (A) (A) (A) (A) (A) (A) (A) (A) (A) (A) (A)
                 (A) (A) (A) (A) (A) (A) (A) (A) (A) (A) (A) (A)
                 (A) (A) (A) (A) (A) (A) (A) (A) (A) (A) (A) (A)
                 (A) (A) (A) (A) (A) (A) (A) (A) (A) (A) (A) (A)
                 (A) (A) (A) (A) (A) (A) (A) (A) (A) (A) (A) (A)
                 (A) (A) (A) (A) (A) (A) (A) (A) (A) (A) (A) (A)
                 (A) (A) (A) (A) (A) (A) (A) (A) (A) (A) (A) (A)
                 (A) (A) (A) (A) (A) (A) (A) (A) (A) (A) (A) (A)
                 (A) (A) (A) (A) (A) (A) (A) (A) (A) (A) (A) (A)
                 (A) (A) (A) (A) (A) (A) (A) (A) (A) (A) (A) (A)
                 (A) (A) (A) (A) (A) (A) (A) (A) (A) (A) (A) (A)
                 (A) (A) (A) (A) (A) (A) (A) (A) (A) (A) (A) (A)
                 (A) (A) (A) (A) (A) (A) (A) (A) (A) (A) (A) (A)
[...]
 Alpha virt. eigenvalues --    3.43072   3.43139   3.43911   3.44086   3.44331
 Alpha virt. eigenvalues --    3.44503   3.45027   3.45559   3.45586   3.45835
 Alpha virt. eigenvalues --    3.46166   3.46439   3.46862   3.47150   3.47641
 Alpha virt. eigenvalues --    3.48168   3.48510   3.48589   3.48797   3.48833
 Alpha virt. eigenvalues --    3.48994   3.49390   3.49621   3.50030   3.50298
 Alpha virt. eigenvalues --    3.50373   3.50645   3.50831   3.50992   3.51432
 Alpha virt. eigenvalues --    3.51839   3.51951   3.52268   3.52391   3.52649
 Alpha virt. eigenvalues --    3.52665   3.53389   3.53436   3.53757   3.53886
 Alpha virt. eigenvalues --    3.54486   3.54871   3.55104   3.55219   3.55342
 Alpha virt. eigenvalues --    3.55688   3.55823   3.55921   3.56093   3.56222
 Alpha virt. eigenvalues --    3.56770   3.57130   3.57219   3.57481   3.57724
 Alpha virt. eigenvalues --    3.57802   3.58027   3.58261   3.58409   3.58799
 Alpha virt. eigenvalues --    3.58990   3.59215   3.59468   3.59808   3.59993
 Alpha virt. eigenvalues --    3.60087   3.60647   3.60878   3.61039   3.61212
 Alpha virt. eigenvalues --    3.61251   3.61648   3.62056   3.62433   3.62695
 Alpha virt. eigenvalues --    3.63119   3.63186   3.63271   3.63520   3.63766
 Alpha virt. eigenvalues --    3.64087   3.64371   3.64496   3.65036   3.65150
 Alpha virt. eigenvalues --    3.65644   3.65849   3.66206   3.66377   3.66738
 Alpha virt. eigenvalues --    3.67257   3.67452   3.67688   3.68016   3.68265
 Alpha virt. eigenvalues --    3.68576   3.68757   3.69210   3.69486   3.69680
 Alpha virt. eigenvalues --    3.69945   3.70341   3.70489   3.70713   3.70975
 Alpha virt. eigenvalues --    3.71453   3.71588   3.71834   3.71881   3.72468
 Alpha virt. eigenvalues --    3.72758   3.72886   3.73334   3.73846   3.73949
 Alpha virt. eigenvalues --    3.74148   3.74240   3.74646   3.75017   3.75386
 Alpha virt. eigenvalues --    3.75835   3.76236   3.76415   3.76599   3.76964
 Alpha virt. eigenvalues --    3.77154   3.77724   3.77872   3.78318   3.78596
 Alpha virt. eigenvalues --    3.78716   3.78898   3.79375   3.79635   3.79812
 Alpha virt. eigenvalues --    3.80029   3.80655   3.80985   3.81488   3.81574
 Alpha virt. eigenvalues --    3.82145   3.82238   3.82564   3.82709   3.83022
 Alpha virt. eigenvalues --    3.83348   3.83989   3.84352   3.84527   3.85118
 Alpha virt. eigenvalues --    3.85623   3.86231   3.86478   3.86754   3.87921
 Alpha virt. eigenvalues --    3.88009   3.89020   3.89680   3.89995   3.90387
 Alpha virt. eigenvalues --    3.90588   3.90882   3.91265   3.92292   3.92632
 Alpha virt. eigenvalues --    3.93162   3.93514   3.93932   3.94429   3.95411
 Alpha virt. eigenvalues --    3.96149   3.97366   3.97990   3.99110   3.99722
 Alpha virt. eigenvalues --    3.99890   4.00354   4.01454   4.01907   4.02762
 Alpha virt. eigenvalues --    4.03475   4.03582   4.04709   4.05359   4.05665
 Alpha virt. eigenvalues --    4.06293   4.07053   4.07416   4.07814   4.08141
 Alpha virt. eigenvalues --    4.08495   4.08682   4.09663   4.09835   4.10558
 Alpha virt. eigenvalues --    4.10773   4.10926   4.11557   4.11813   4.12012
 Alpha virt. eigenvalues --    4.12374   4.12816   4.13263   4.13366   4.13673
 Alpha virt. eigenvalues --    4.13866   4.14138   4.14432   4.14802   4.15127
 Alpha virt. eigenvalues --    4.15989   4.16063   4.16709   4.17643   4.18495
 Alpha virt. eigenvalues --    4.18647   4.18924   4.19445   4.19599   4.19950
 Alpha virt. eigenvalues --    4.20006   4.20335   4.20496   4.20810   4.21132
 Alpha virt. eigenvalues --    4.21436   4.21751   4.21945   4.22002   4.22303
 Alpha virt. eigenvalues --    4.23023   4.23310   4.23742   4.24172   4.24513
 Alpha virt. eigenvalues --    4.24645   4.24737   4.25377   4.26061   4.26216
 Alpha virt. eigenvalues --    4.26703   4.27070   4.27693   4.28503   4.28776
 Alpha virt. eigenvalues --    4.29836   4.30109   4.30553   4.30861   4.31272
 Alpha virt. eigenvalues --    4.31561   4.32302   4.32892   4.34724   4.35038
 Alpha virt. eigenvalues --    4.35385   4.35577   4.35927   4.36176   4.36554
 Alpha virt. eigenvalues --    4.37114   4.37242   4.37723   4.37852   4.38359
 Alpha virt. eigenvalues --    4.38771   4.38975   4.39749   4.39904   4.41110
 Alpha virt. eigenvalues --    4.41329   4.41897   4.42602   4.42741   4.42855
 Alpha virt. eigenvalues --    4.43022   4.43335   4.43638   4.44032   4.44696
 Alpha virt. eigenvalues --    4.45023   4.45245   4.45433   4.45599   4.45962
 Alpha virt. eigenvalues --    4.46260   4.46725   4.46795   4.47802   4.48439
 Alpha virt. eigenvalues --    4.48521   4.49119   4.49495   4.49838   4.49913
 Alpha virt. eigenvalues --    4.51380   4.51812   4.53209   4.53537   4.53857
 Alpha virt. eigenvalues --    4.54378   4.55445   4.56073   4.56918   4.59239
 Alpha virt. eigenvalues --    4.59510   4.60419   4.60967   4.61093   4.62722
 Alpha virt. eigenvalues --    4.63449   4.64429   4.64895   4.65008   4.65441
 Alpha virt. eigenvalues --    4.66151   4.66558   4.67917   4.68069   4.68450
 Alpha virt. eigenvalues --    4.68576   4.69077   4.69880   4.70162   4.71912
 Alpha virt. eigenvalues --    4.73136   4.73799   4.74421   4.74786   4.75031
 Alpha virt. eigenvalues --    4.75800   4.77449   4.77664   4.78611   4.80065
 Alpha virt. eigenvalues --    4.80244   4.81910   4.82040   4.83042   4.83770
 Alpha virt. eigenvalues --    4.84368   4.84945   4.85884   4.87963   4.88613
 Alpha virt. eigenvalues --    4.88849   4.90462   4.91001   4.91445   4.92175
 Alpha virt. eigenvalues --    4.92664   4.93047   4.93556   4.94208   4.94636
 Alpha virt. eigenvalues --    4.94905   4.95374   4.95694   4.96132   4.96605
 Alpha virt. eigenvalues --    4.97229   4.97363   4.98267   4.99847   5.01142
 Alpha virt. eigenvalues --    5.01793   5.03493   5.05632   5.07013   5.09617
 Alpha virt. eigenvalues --    5.10422   5.11306   5.12410   5.12936   5.14208
 Alpha virt. eigenvalues --    5.14842   5.15234   5.15785   5.16624   5.16754
 Alpha virt. eigenvalues --    5.17849   5.18732   5.19649   5.21053   5.22066
 Alpha virt. eigenvalues --    5.22718   5.22978   5.24040   5.24389   5.24572
 Alpha virt. eigenvalues --    5.25285   5.25680   5.27655   5.28004   5.29029
 Alpha virt. eigenvalues --    5.29351   5.30523   5.31752   5.32555   5.33486
 Alpha virt. eigenvalues --    5.35889   5.38005   5.38553   5.41773   5.42373
 Alpha virt. eigenvalues --    5.46013   5.46503   5.49737   5.52240   5.54576
 Alpha virt. eigenvalues --    5.57778   5.61154   5.62291   5.63747   5.65550
 Alpha virt. eigenvalues --    5.66315   5.68651   5.71349   5.73739   5.76424
 Alpha virt. eigenvalues --    5.82567   5.87040   5.88283   5.89410   5.93662
 Alpha virt. eigenvalues --    6.02469   6.11481   6.15403   6.16522   6.43651
 Alpha virt. eigenvalues --    6.46984   6.49154   6.52064   6.56633   6.63841
 Alpha virt. eigenvalues --    6.76066   6.81261   6.88762   6.90622   6.92148
 Alpha virt. eigenvalues --    6.93389   6.93976   6.94329   6.94827   6.95150
 Alpha virt. eigenvalues --    6.95284   6.96006   6.96270   6.97048   6.97483
 Alpha virt. eigenvalues --    7.00602   7.01665   7.04522   7.06090   7.08728
 Alpha virt. eigenvalues --    7.10081   7.13775   7.14531   7.18298   7.24245
 Alpha virt. eigenvalues --    7.28178   7.29118   7.29573   7.36747   7.39155
 Alpha virt. eigenvalues --    7.41754   7.48889   7.49062   7.53565   7.57220
 Alpha virt. eigenvalues --    7.62518   7.74534   7.76565   7.98306   8.00381
 Alpha virt. eigenvalues --    8.07350   8.08356   8.10141   8.11340   8.16179
 Alpha virt. eigenvalues --    8.40232   8.43944   8.46452   8.50269   8.56927
 Alpha virt. eigenvalues --    8.64805   8.66643   8.78818   8.80272   8.84326
 Alpha virt. eigenvalues --    8.89542   8.91774   8.95442   9.01196   9.03224
 Alpha virt. eigenvalues --    9.11944   9.14633   9.18457   9.20421   9.42721
 Alpha virt. eigenvalues --    9.52865   9.61360   9.87053  10.87224  10.95799
 Alpha virt. eigenvalues --   11.37511  15.81361  15.85644  22.11233  22.41563
 Alpha virt. eigenvalues --   22.51684  22.55547  22.56224  22.58351  22.58489
 Alpha virt. eigenvalues --   22.59549  22.60810  22.61379  22.62546  22.63117
 Alpha virt. eigenvalues --   22.65147  22.65520  22.66003  22.67251  22.67938
 Alpha virt. eigenvalues --   22.68392  22.69136  22.70990  22.71610  22.73918
 Alpha virt. eigenvalues --   22.75462  22.76932  22.79897  22.82799  22.84415
 Alpha virt. eigenvalues --   22.85709  22.88353  22.88867  22.89668  22.92977
 Alpha virt. eigenvalues --   22.96770  23.02676  23.06489  23.07484  23.14323
 Alpha virt. eigenvalues --   23.24113  23.31928  23.50659  23.87146  25.71883
 Alpha virt. eigenvalues --   32.92958  33.09453  43.91352  44.09626  44.37993
 Alpha virt. eigenvalues --   57.33849  57.51159  57.61105  57.74072 107.23198
          Condensed to atoms (all electrons):
 Mulliken charges:
               1
     1  C    0.320055
     2  C   -0.356600
     3  H    0.239826
     4  C   -0.204650
     5  H    0.140122
     6  C    0.385097
     7  C   -0.465262
     8  H    0.173626
     9  C   -0.056177
    10  C   -0.012826
    11  C    0.250580
    12  C    0.201182
    13  C    0.199713
    14  C    0.143261
    15  C   -0.071723
    16  N   -0.240154
    17  S    0.840953
    18  O   -0.495856
    19  O   -0.481008
    20  C   -0.165094
    21  Cl  -0.101552
    22  H    0.215954
    23  H    0.205282
    24  F   -0.195399
    25  F   -0.204360
    26  F   -0.202336
    27  F   -0.221335
    28  O   -0.314619
    29  C   -0.221617
    30  H    0.125671
    31  H    0.132015
    32  H    0.153950
    33  Pd  -0.431086
    34  P    0.343143
    35  C   -0.387256
    36  C   -0.081812
    37  C   -0.049602
    38  C   -0.385560
    39  H    0.162597
    40  H    0.170801
    41  C   -0.240830
    42  C   -0.280014
    43  H    0.122994
    44  C   -0.290401
    45  C   -0.335828
    46  H    0.130167
    47  P    0.406274
    48  H    0.156543
    49  H    0.164818
    50  C   -0.185799
    51  H    0.055692
    52  H    0.130584
    53  C   -0.176438
    54  H    0.108122
    55  H    0.121818
    56  C   -0.191034
    57  H    0.111320
    58  H    0.134292
    59  C   -0.180032
    60  H    0.104541
    61  H    0.165664
    62  C   -0.049531
    63  C   -0.130740
    64  C   -0.206864
    65  H    0.119132
    66  H    0.099540
    67  H    0.114660
    68  H    0.098791
    69  C   -0.193256
    70  H    0.116661
    71  H    0.101726
    72  H    0.116800
    73  H    0.104173
    74  C   -0.304209
    75  C   -0.352219
    76  H    0.114866
    77  C   -0.310988
    78  C   -0.278858
    79  H    0.136021
    80  H    0.112765
    81  H    0.091158
    82  H    0.116849
    83  H    0.093444
    84  C   -0.180961
    85  H    0.131686
    86  H    0.123498
    87  C   -0.174054
    88  H    0.135685
    89  H    0.130392
    90  C   -0.185154
    91  H    0.104250
    92  H    0.165036
    93  C   -0.188071
    94  H    0.118409
    95  H    0.132026
    96  C   -0.192783
    97  H    0.115401
    98  H    0.098165
    99  H    0.118096
   100  H    0.096989
   101  C   -0.193615
   102  H    0.114098
   103  H    0.105475
   104  H    0.115190
   105  H    0.100820
   106  H    0.113128
   107  H    0.088236
   108  H    0.115967
   109  H    0.091773
 Sum of Mulliken charges =   0.00000
 Mulliken charges with hydrogens summed into heavy atoms:
               1
     1  C    0.320055
     2  C   -0.116774
     4  C   -0.064528
     6  C    0.385097
     7  C   -0.291636
     9  C   -0.056177
    10  C   -0.012826
    11  C    0.250580
    12  C    0.201182
    13  C    0.199713
    14  C    0.143261
    15  C   -0.071723
    16  N   -0.240154
    17  S    0.840953
    18  O   -0.495856
    19  O   -0.481008
    20  C    0.256141
    21  Cl  -0.101552
    24  F   -0.195399
    25  F   -0.204360
    26  F   -0.202336
    27  F   -0.221335
    28  O   -0.314619
    29  C    0.190018
    33  Pd  -0.431086
    34  P    0.343143
    35  C   -0.053858
    36  C    0.041182
    37  C    0.080566
    38  C   -0.064199
    41  C   -0.054554
    42  C   -0.050074
    44  C   -0.044789
    45  C   -0.065622
    47  P    0.406274
    50  C    0.032873
    53  C    0.037013
    56  C    0.027354
    59  C    0.040941
    62  C    0.065335
    63  C    0.005281
    64  C   -0.002941
    69  C    0.017037
    74  C   -0.049025
    75  C   -0.086142
    77  C   -0.041702
    78  C   -0.028423
    84  C    0.032605
    87  C    0.041031
    90  C    0.034419
    93  C    0.027939
    96  C    0.008580
   101  C    0.014126
 Electronic spatial extent (au):  <R**2>=          32791.9277
 Charge=              0.0000 electrons
 Dipole moment (field-independent basis, Debye):
    X=              6.3092    Y=              7.0944    Z=              4.7586  Tot=             10.6198
 Quadrupole moment (field-independent basis, Debye-Ang):
   XX=           -349.5471   YY=           -369.8313   ZZ=           -350.8394
   XY=             -9.4395   XZ=             13.1269   YZ=              0.5243
 Traceless Quadrupole moment (field-independent basis, Debye-Ang):
   XX=              7.1922   YY=            -13.0920   ZZ=              5.8999
   XY=             -9.4395   XZ=             13.1269   YZ=              0.5243
 Octapole moment (field-independent basis, Debye-Ang**2):
  XXX=              8.5625  YYY=             54.9215  ZZZ=            -32.3139  XYY=             29.3374
  XXY=             45.9408  XXZ=             -8.9341  XZZ=              1.5882  YZZ=             -3.9640
  YYZ=             38.2691  XYZ=            -19.3323
 Hexadecapole moment (field-independent basis, Debye-Ang**3):
 XXXX=         -17952.0461 YYYY=         -16215.1934 ZZZZ=          -8856.7722 XXXY=           -300.2121
 XXXZ=            222.4562 YYYX=             10.0605 YYYZ=            -15.7700 ZZZX=             18.7315
 ZZZY=             58.3370 XXYY=          -5599.0603 XXZZ=          -4661.9343 YYZZ=          -4257.3921
 XXYZ=             34.7468 YYXZ=             46.8705 ZZXY=             64.5528
 N-N= 1.049950688689D+04 E-N=-3.016332729670D+04  KE= 3.813024725392D+03
 Leave Link  601 at Sun Mar  3 17:26:16 2024, MaxMem=  2147483648 cpu:         8.8
 (Enter /cluster/apps/gaussian/g09/l9999.exe)
 1\1\GINC-EU-G5-020-1\SP\RwB97XD\GenECP\C40H56Cl1F4N1O3P2Pd1S1\SROEDIGE
 R\03-Mar-2024\0\\#p sp geom=allcheck scrf(solvent=dichloromethane,smd)
  wb97xd genecp temperature=313 integral(grid=ultrafine)\\title\\0,1\C,
 0,-0.9534685775,0.6398992613,1.3462846304\C,0,-1.1392552335,0.57814304
 35,2.7577824947\H,0,-0.3230089826,0.2469241087,3.402875586\C,0,-2.3939
 099848,0.8231041913,3.2850196866\H,0,-2.5796987356,0.6888153872,4.3534
 212578\C,0,-3.4779346503,1.2310117286,2.4773191387\C,0,-3.2608802027,1
 .4852319608,1.1276705217\H,0,-4.0358963563,1.9144904699,0.4942118518\C
 ,0,-1.9949431283,1.2400674331,0.5721062673\C,0,-1.4834248584,1.6957517
 862,-0.6907772825\C,0,-2.1660116623,2.0966196883,-1.839163483\C,0,-1.4
 733880208,2.538487206,-2.9566507018\C,0,-0.0764908028,2.591540931,-2.9
 26830409\C,0,0.6315640572,2.2111144032,-1.7899122991\C,0,-0.0621596898
 ,1.769720636,-0.6622629657\N,0,0.4732467488,1.2839178361,0.5465528325\
 S,0,1.604929816,2.0961184398,1.4810928223\O,0,1.9484131057,1.173839625
 4,2.5583925352\O,0,2.6367747049,2.7118727062,0.6697637356\C,0,0.638711
 4561,3.3975632551,2.2736883514\Cl,0,0.0147411483,4.5763193061,1.129202
 7454\H,0,1.329148216,3.8786309145,2.9802722895\H,0,-0.1890054443,2.902
 9860333,2.8020706231\F,0,1.9529845835,2.2322841735,-1.8616047185\F,0,0
 .5851142695,2.9549545656,-4.0170971969\F,0,-2.1178861384,2.8871812256,
 -4.0598046296\F,0,-3.4975146571,2.0356977,-1.8923750122\O,0,-4.6661182
 818,1.3957589435,3.1150087361\C,0,-5.7634802559,1.796556798,2.35249162
 83\H,0,-5.9771949585,1.0849168115,1.5326997108\H,0,-5.6196691362,2.799
 545914,1.9101772773\H,0,-6.6282227167,1.8306807153,3.0280739827\Pd,0,0
 .3557572299,-0.8109130968,0.6840340766\P,0,-0.8332623098,-2.7593701611
 ,0.7612448943\C,0,0.2179338483,-4.0913674556,0.0033721231\C,0,-2.40796
 19265,-2.8329762892,-0.2113966566\C,0,-1.2701945002,-3.3237590514,2.46
 42257456\C,0,1.7199300148,-3.8802717641,0.2152558851\H,0,-0.0951217398
 ,-5.0843931956,0.3639245472\H,0,-0.0200692165,-4.0645059109,-1.0714703
 648\C,0,-3.5410276513,-2.1379543375,0.5491117366\C,0,-2.1756263782,-2.
 1614338232,-1.5704350145\H,0,-2.6745859588,-3.89498132,-0.3733208223\C
 ,0,-1.9651745564,-4.6800370756,2.5671474909\C,0,-0.0534632863,-3.25696
 34162,3.3893851439\H,0,-1.9714146161,-2.5368388513,2.8008549631\P,0,2.
 2511319162,-2.1003301323,0.0683379966\H,0,2.3015980943,-4.5145465579,-
 0.473066403\H,0,1.9998590201,-4.1871161541,1.2355199086\C,0,-4.8117759
 768,-2.0303695452,-0.2877918042\H,0,-3.2097641876,-1.126389838,0.83695
 64516\H,0,-3.7638002515,-2.6727416263,1.4849772882\C,0,-3.453622354,-2
 .0767148353,-2.3963615203\H,0,-1.7847147067,-1.1437670729,-1.388486734
 \H,0,-1.3935271102,-2.6923502589,-2.1363332939\C,0,-2.3520257511,-4.98
 81004654,4.0121788531\H,0,-1.2830993864,-5.4682856867,2.2005400068\H,0
 ,-2.8566890651,-4.7140523118,1.9208493651\C,0,-0.4445359265,-3.5588210
 808,4.8313990037\H,0,0.6996018627,-3.994800316,3.0587236258\H,0,0.4234
 654549,-2.2674557298,3.307817189\C,0,2.8161035229,-1.9117198233,-1.687
 0053765\C,0,3.7873402754,-1.9939022581,1.0901476117\C,0,-4.5557761675,
 -1.3571543387,-1.6299592188\H,0,-5.5768718279,-1.4777613729,0.28208179
 29\H,0,-5.2229239884,-3.0421026066,-0.4601377608\H,0,-3.2451397997,-1.
 5618998094,-3.3481437018\H,0,-3.7911075991,-3.0960332096,-2.6592999215
 \C,0,-1.1501630598,-4.9056231397,4.9472612121\H,0,-2.8212832638,-5.983
 3878159,4.073719256\H,0,-3.1182657333,-4.2623402856,4.3389801907\H,0,0
 .4472966547,-3.5322945703,5.4781177993\H,0,-1.1159795964,-2.7594439354
 ,5.1931917895\C,0,1.5892129411,-1.9103238306,-2.6065558239\C,0,3.61188
 70156,-0.6117228574,-1.8332416735\H,0,3.4628064144,-2.7692155569,-1.95
 2140747\C,0,3.4415462817,-2.0190361306,2.5809641353\C,0,4.8846962969,-
 2.9997778344,0.7464082443\H,0,4.1564131352,-0.9753015002,0.8702907977\
 H,0,-5.4818817425,-1.3252841404,-2.2263466111\H,0,-4.2531098911,-0.309
 3061552,-1.4652524198\H,0,-1.461673347,-5.0895255048,5.9880605525\H,0,
 -0.4367422428,-5.7101262675,4.6907290819\C,0,1.9456682993,-1.598057330
 1,-4.055341891\H,0,0.8731067523,-1.1554264059,-2.2323756566\H,0,1.0709
 609558,-2.8809867833,-2.5486733284\C,0,3.94467164,-0.2932057632,-3.287
 7366696\H,0,3.0260941376,0.2175896763,-1.4025380866\H,0,4.5437187388,-
 0.6674911367,-1.2493021835\C,0,4.6859202579,-1.8046121307,3.4356490621
 \H,0,2.9895659488,-2.993132235,2.842288269\H,0,2.688507991,-1.24385663
 26,2.7927395988\C,0,6.1231383797,-2.7814731934,1.6125914596\H,0,4.5046
 478872,-4.0244624142,0.910257688\H,0,5.1524860784,-2.9328115164,-0.320
 6639805\C,0,2.7027735143,-0.2816322755,-4.1697896747\H,0,1.0277524457,
 -1.5735189463,-4.6648837894\H,0,2.5691456977,-2.4147162674,-4.46300928
 9\H,0,4.4620848982,0.67774513,-3.3391666268\H,0,4.6548239251,-1.048329
 3898,-3.6720093401\C,0,5.7811821833,-2.8102884714,3.0982470796\H,0,4.4
 223320454,-1.8635962752,4.5040034317\H,0,5.0607952071,-0.7797533016,3.
 2656818568\H,0,6.8883111878,-3.5388016908,1.3761607612\H,0,6.567122721
 4,-1.801493133,1.3611440386\H,0,2.9793108205,-0.0874519017,-5.21847590
 82\H,0,2.0485901056,0.5523026323,-3.8643748232\H,0,6.6825300111,-2.616
 3262268,3.701882938\H,0,5.4383793246,-3.8255970024,3.3705954872\\Versi
 on=ES64L-G09RevD.01\State=1-A\HF=-3907.1474822\RMSD=2.542e-09\Dipole=-
 0.3366536,-4.0551445,0.9484563\Quadrupole=2.9134009,4.5690078,-7.48240
 87,-8.1604738,-2.109067,10.1106202\PG=C01 [X(C40H56Cl1F4N1O3P2Pd1S1)]\
 \@


 BREAD HAS TO MOLD IN ORDER TO GET PENICILLIN.
          -- JERRY BOATZ
 Job cpu time:       1 days 12 hours 55 minutes 55.6 seconds.
 File lengths (MBytes):  RWF=   2951 Int=      0 D2E=      0 Chk=    179 Scr=      1
 Normal termination of Gaussian 09 at Sun Mar  3 17:26:17 2024.
