 Entering Gaussian System, Link 0=g09
 Input=ts_ptbu3-v6-released-sp.com
 Output=ts_ptbu3-v6-released-sp.log
 Initial command:
 /cluster/apps/gaussian/g09/l1.exe "/scratch/264093295.tmpdir/Gau-59587.inp" -scrdir="/scratch/264093295.tmpdir/"
 Entering Link 1 = /cluster/apps/gaussian/g09/l1.exe PID=     59588.
  
 Copyright (c) 1988,1990,1992,1993,1995,1998,2003,2009,2013,
            Gaussian, Inc.  All Rights Reserved.
  
 This is part of the Gaussian(R) 09 program.  It is based on
 the Gaussian(R) 03 system (copyright 2003, Gaussian, Inc.),
 the Gaussian(R) 98 system (copyright 1998, Gaussian, Inc.),
 the Gaussian(R) 94 system (copyright 1995, Gaussian, Inc.),
 the Gaussian 92(TM) system (copyright 1992, Gaussian, Inc.),
 the Gaussian 90(TM) system (copyright 1990, Gaussian, Inc.),
 the Gaussian 88(TM) system (copyright 1988, Gaussian, Inc.),
 the Gaussian 86(TM) system (copyright 1986, Carnegie Mellon
 University), and the Gaussian 82(TM) system (copyright 1983,
 Carnegie Mellon University). Gaussian is a federally registered
 trademark of Gaussian, Inc.
  
 This software contains proprietary and confidential information,
 including trade secrets, belonging to Gaussian, Inc.
  
 This software is provided under written license and may be
 used, copied, transmitted, or stored only in accord with that
 written license.
  
 The following legend is applicable only to US Government
 contracts under FAR:
  
                    RESTRICTED RIGHTS LEGEND
  
 Use, reproduction and disclosure by the US Government is
 subject to restrictions as set forth in subparagraphs (a)
 and (c) of the Commercial Computer Software - Restricted
 Rights clause in FAR 52.227-19.
  
 Gaussian, Inc.
 340 Quinnipiac St., Bldg. 40, Wallingford CT 06492
  
  
 ---------------------------------------------------------------
 Warning -- This program may not be used in any manner that
 competes with the business of Gaussian, Inc. or will provide
 assistance to any competitor of Gaussian, Inc.  The licensee
 of this program is prohibited from giving any competitor of
 Gaussian, Inc. access to this program.  By using this program,
 the user acknowledges that Gaussian, Inc. is engaged in the
 business of creating and licensing software in the field of
 computational chemistry and represents and warrants to the
 licensee that it is not a competitor of Gaussian, Inc. and that
 it will not use this program in any manner prohibited above.
 ---------------------------------------------------------------
  

 Cite this work as:
 Gaussian 09, Revision D.01,
 M. J. Frisch, G. W. Trucks, H. B. Schlegel, G. E. Scuseria, 
 M. A. Robb, J. R. Cheeseman, G. Scalmani, V. Barone, B. Mennucci, 
 G. A. Petersson, H. Nakatsuji, M. Caricato, X. Li, H. P. Hratchian, 
 A. F. Izmaylov, J. Bloino, G. Zheng, J. L. Sonnenberg, M. Hada, 
 M. Ehara, K. Toyota, R. Fukuda, J. Hasegawa, M. Ishida, T. Nakajima, 
 Y. Honda, O. Kitao, H. Nakai, T. Vreven, J. A. Montgomery, Jr., 
 J. E. Peralta, F. Ogliaro, M. Bearpark, J. J. Heyd, E. Brothers, 
 K. N. Kudin, V. N. Staroverov, T. Keith, R. Kobayashi, J. Normand, 
 K. Raghavachari, A. Rendell, J. C. Burant, S. S. Iyengar, J. Tomasi, 
 M. Cossi, N. Rega, J. M. Millam, M. Klene, J. E. Knox, J. B. Cross, 
 V. Bakken, C. Adamo, J. Jaramillo, R. Gomperts, R. E. Stratmann, 
 O. Yazyev, A. J. Austin, R. Cammi, C. Pomelli, J. W. Ochterski, 
 R. L. Martin, K. Morokuma, V. G. Zakrzewski, G. A. Voth, 
 P. Salvador, J. J. Dannenberg, S. Dapprich, A. D. Daniels, 
 O. Farkas, J. B. Foresman, J. V. Ortiz, J. Cioslowski, 
 and D. J. Fox, Gaussian, Inc., Wallingford CT, 2013.
 
 ******************************************
 Gaussian 09:  ES64L-G09RevD.01 24-Apr-2013
                29-Nov-2023 
 ******************************************
 %nprocshared=8
 Will use up to    8 processors via shared memory.
 %mem=16GB
 %oldchk=ts_ptbu3-v6-released.chk
 %chk=ts_ptbu3-v6-released-sp.chk
 Copying data from "ts_ptbu3-v6-released.chk" to current chk file "ts_ptbu3-v6-released-sp.chk".
 ----------------------------------------------------------------------
 #p sp geom=allcheck scrf(solvent=dichloromethane,smd) wb97xd genecp te
 mperature=313 integral(grid=ultrafine)
 ----------------------------------------------------------------------
 1/29=7,38=1,112=313000/1;
 2/12=2,40=1/2;
 3/5=7,11=2,14=-4,16=1,17=8,25=1,30=1,70=32201,72=9,74=-58,75=-5/1,2,3;
 4//1;
 5/5=2,38=5,53=9/2;
 6/7=2,8=2,9=2,10=2,28=1/1;
 99/5=1,9=1/99;
 Leave Link    1 at Wed Nov 29 15:15:45 2023, MaxMem=  2147483648 cpu:         1.6
 (Enter /cluster/apps/gaussian/g09/l101.exe)
 Structure from the checkpoint file:  "ts_ptbu3-v6-released-sp.chk"
 -----
 title
 -----
 Charge =  0 Multiplicity = 1
 Redundant internal coordinates found in file.
 Pd,0,0.7042139372,-0.8082620231,-0.0748161221
 P,0,2.6156875652,0.0073163727,0.9191895332
 C,0,2.9284297721,-1.076597527,2.4647807763
 C,0,2.6234747766,-2.5311025074,2.072198333
 H,0,3.3127354231,-2.942319,1.3281234394
 H,0,2.689670944,-3.1638923947,2.9728321026
 H,0,1.5982006377,-2.630189979,1.6751457884
 C,0,4.3317987618,-0.9828657845,3.0646042941
 H,0,5.1093529776,-1.3425613796,2.3783604509
 H,0,4.3797001522,-1.6159019843,3.9665247896
 H,0,4.5911939151,0.0398857585,3.3681564343
 C,0,1.9005915582,-0.7154165027,3.5421984338
 H,0,1.9512828332,-1.4751130871,4.3391703805
 H,0,2.0936246962,0.2583571825,4.0094590164
 H,0,0.8751397503,-0.7211988618,3.1417146037
 C,0,4.1237552061,-0.1211075561,-0.2489729192
 C,0,5.3483071691,0.6924262752,0.1717647658
 H,0,5.7066462862,0.4304426314,1.1761267735
 H,0,6.1707914566,0.4903868543,-0.534598268
 H,0,5.1616821195,1.7741273715,0.145266436
 C,0,4.5242349546,-1.5934401117,-0.3932889756
 H,0,3.6636102296,-2.2195992106,-0.6737044383
 H,0,5.2646046584,-1.6708317718,-1.2060870824
 H,0,4.9894812827,-2.0098132081,0.5088121391
 C,0,3.6635769191,0.311612888,-1.6482062068
 H,0,4.5148192678,0.2188130711,-2.3430149177
 H,0,2.8588366158,-0.3463666782,-2.0059160236
 H,0,3.3007469803,1.3431968958,-1.6990857211
 C,0,2.3868290903,1.8280193841,1.4612306716
 C,0,3.4139475071,2.3320138201,2.4765079734
 H,0,3.339760244,1.8091933425,3.4395607168
 H,0,3.2214955201,3.3995327104,2.6755451682
 H,0,4.447592084,2.2463040359,2.1185240121
 C,0,0.9761394467,1.9915093488,2.0464443503
 H,0,0.2108194627,1.6114120368,1.3560874974
 H,0,0.786655033,3.0667171673,2.1993946633
 H,0,0.8443904626,1.4958637233,3.0131158182
 C,0,2.4273646037,2.7152967236,0.2116708972
 H,0,1.7164707199,2.3731601147,-0.5545553753
 H,0,2.1310770739,3.7358551357,0.503420903
 H,0,3.4270287783,2.7845949932,-0.2357481556
 C,0,-0.3876076809,0.4975949537,-1.199646967
 C,0,0.2253948105,0.8612886289,-2.4113454367
 H,0,0.8761221161,0.1583697234,-2.9313435968
 C,0,0.0281896779,2.1406299182,-2.9099770018
 H,0,0.5413128027,2.470099569,-3.8158353896
 C,0,-0.8175880212,3.0569468065,-2.2567072283
 C,0,-1.5456745508,2.6457683586,-1.1411442565
 H,0,-2.2889541575,3.2916095054,-0.6770557945
 C,0,-1.3725577695,1.34405271,-0.6439326262
 C,0,-2.2514849424,0.6548788452,0.2827801343
 C,0,-3.15161067,1.1935244646,1.1978583432
 C,0,-3.9554662603,0.3607726277,1.9692752044
 C,0,-3.8511664854,-1.0250321636,1.8357112604
 C,0,-2.9416647444,-1.5910148098,0.9416371369
 C,0,-2.1598844099,-0.7549010473,0.142595862
 N,0,-1.1726532846,-1.1714462287,-0.7635705098
 S,0,-1.5167329502,-2.1003299774,-2.1180399825
 O,0,-0.2515951678,-2.2409495993,-2.8191662914
 O,0,-2.3205198793,-3.2504401342,-1.7554117757
 C,0,-2.5843439029,-0.9741173003,-3.05235477
 Cl,0,-3.165820004,-1.7442985458,-4.5220114196
 H,0,-1.9978165236,-0.0795471233,-3.2970644257
 H,0,-3.4317530128,-0.7224547406,-2.4000995607
 F,0,-2.8150891049,-2.9021696342,0.9246859349
 F,0,-4.5879812205,-1.8067212403,2.6056805767
 F,0,-4.8049648895,0.8713666009,2.8448004848
 F,0,-3.2523457854,2.5095417316,1.3657509146
 O,0,-0.8956226578,4.2877861692,-2.8065263889
 C,0,-1.7480828539,5.2272978239,-2.2170652042
 H,0,-1.4768736095,5.4235515322,-1.16410792
 H,0,-2.8044346966,4.9059737956,-2.2536371139
 H,0,-1.6412289243,6.1561970403,-2.791398339
 Recover connectivity data from disk.
 NAtoms=     73 NQM=       73 NQMF=       0 NMMI=      0 NMMIF=      0
                NMic=       0 NMicF=      0.
                    Isotopes and Nuclear Properties:
 (Nuclear quadrupole moments (NQMom) in fm**2, nuclear magnetic moments (NMagM)
  in nuclear magnetons)

  Atom         1           2           3           4           5           6           7           8           9          10
 IAtWgt=         106          31          12          12           1           1           1          12           1           1
 AtmWgt= 105.9032000  30.9737634  12.0000000  12.0000000   1.0078250   1.0078250   1.0078250  12.0000000   1.0078250   1.0078250
 NucSpn=           0           1           0           0           1           1           1           0           1           1
 AtZEff=-237.3600000 -12.9400000  -3.6000000  -3.6000000  -1.0000000  -1.0000000  -1.0000000  -3.6000000  -1.0000000  -1.0000000
 NQMom=    0.0000000   0.0000000   0.0000000   0.0000000   0.0000000   0.0000000   0.0000000   0.0000000   0.0000000   0.0000000
 NMagM=    0.0000000   1.1316000   0.0000000   0.0000000   2.7928460   2.7928460   2.7928460   0.0000000   2.7928460   2.7928460
 AtZNuc=  46.0000000  15.0000000   6.0000000   6.0000000   1.0000000   1.0000000   1.0000000   6.0000000   1.0000000   1.0000000

  Atom        11          12          13          14          15          16          17          18          19          20
 IAtWgt=           1          12           1           1           1          12          12           1           1           1
 AtmWgt=   1.0078250  12.0000000   1.0078250   1.0078250   1.0078250  12.0000000  12.0000000   1.0078250   1.0078250   1.0078250
 NucSpn=           1           0           1           1           1           0           0           1           1           1
 AtZEff=  -1.0000000  -3.6000000  -1.0000000  -1.0000000  -1.0000000  -3.6000000  -3.6000000  -1.0000000  -1.0000000  -1.0000000
 NQMom=    0.0000000   0.0000000   0.0000000   0.0000000   0.0000000   0.0000000   0.0000000   0.0000000   0.0000000   0.0000000
 NMagM=    2.7928460   0.0000000   2.7928460   2.7928460   2.7928460   0.0000000   0.0000000   2.7928460   2.7928460   2.7928460
 AtZNuc=   1.0000000   6.0000000   1.0000000   1.0000000   1.0000000   6.0000000   6.0000000   1.0000000   1.0000000   1.0000000

  Atom        21          22          23          24          25          26          27          28          29          30
 IAtWgt=          12           1           1           1          12           1           1           1          12          12
 AtmWgt=  12.0000000   1.0078250   1.0078250   1.0078250  12.0000000   1.0078250   1.0078250   1.0078250  12.0000000  12.0000000
 NucSpn=           0           1           1           1           0           1           1           1           0           0
 AtZEff=  -3.6000000  -1.0000000  -1.0000000  -1.0000000  -3.6000000  -1.0000000  -1.0000000  -1.0000000  -3.6000000  -3.6000000
 NQMom=    0.0000000   0.0000000   0.0000000   0.0000000   0.0000000   0.0000000   0.0000000   0.0000000   0.0000000   0.0000000
 NMagM=    0.0000000   2.7928460   2.7928460   2.7928460   0.0000000   2.7928460   2.7928460   2.7928460   0.0000000   0.0000000
 AtZNuc=   6.0000000   1.0000000   1.0000000   1.0000000   6.0000000   1.0000000   1.0000000   1.0000000   6.0000000   6.0000000

  Atom        31          32          33          34          35          36          37          38          39          40
 IAtWgt=           1           1           1          12           1           1           1          12           1           1
 AtmWgt=   1.0078250   1.0078250   1.0078250  12.0000000   1.0078250   1.0078250   1.0078250  12.0000000   1.0078250   1.0078250
 NucSpn=           1           1           1           0           1           1           1           0           1           1
 AtZEff=  -1.0000000  -1.0000000  -1.0000000  -3.6000000  -1.0000000  -1.0000000  -1.0000000  -3.6000000  -1.0000000  -1.0000000
 NQMom=    0.0000000   0.0000000   0.0000000   0.0000000   0.0000000   0.0000000   0.0000000   0.0000000   0.0000000   0.0000000
 NMagM=    2.7928460   2.7928460   2.7928460   0.0000000   2.7928460   2.7928460   2.7928460   0.0000000   2.7928460   2.7928460
 AtZNuc=   1.0000000   1.0000000   1.0000000   6.0000000   1.0000000   1.0000000   1.0000000   6.0000000   1.0000000   1.0000000

  Atom        41          42          43          44          45          46          47          48          49          50
 IAtWgt=           1          12          12           1          12           1          12          12           1          12
 AtmWgt=   1.0078250  12.0000000  12.0000000   1.0078250  12.0000000   1.0078250  12.0000000  12.0000000   1.0078250  12.0000000
 NucSpn=           1           0           0           1           0           1           0           0           1           0
 AtZEff=  -1.0000000  -3.6000000  -3.6000000  -1.0000000  -3.6000000  -1.0000000  -3.6000000  -3.6000000  -1.0000000  -3.6000000
 NQMom=    0.0000000   0.0000000   0.0000000   0.0000000   0.0000000   0.0000000   0.0000000   0.0000000   0.0000000   0.0000000
 NMagM=    2.7928460   0.0000000   0.0000000   2.7928460   0.0000000   2.7928460   0.0000000   0.0000000   2.7928460   0.0000000
 AtZNuc=   1.0000000   6.0000000   6.0000000   1.0000000   6.0000000   1.0000000   6.0000000   6.0000000   1.0000000   6.0000000

  Atom        51          52          53          54          55          56          57          58          59          60
 IAtWgt=          12          12          12          12          12          12          14          32          16          16
 AtmWgt=  12.0000000  12.0000000  12.0000000  12.0000000  12.0000000  12.0000000  14.0030740  31.9720718  15.9949146  15.9949146
 NucSpn=           0           0           0           0           0           0           2           0           0           0
 AtZEff=  -3.6000000  -3.6000000  -3.6000000  -3.6000000  -3.6000000  -3.6000000  -4.5500000 -13.6000000  -5.6000000  -5.6000000
 NQMom=    0.0000000   0.0000000   0.0000000   0.0000000   0.0000000   0.0000000   2.0440000   0.0000000   0.0000000   0.0000000
 NMagM=    0.0000000   0.0000000   0.0000000   0.0000000   0.0000000   0.0000000   0.4037610   0.0000000   0.0000000   0.0000000
 AtZNuc=   6.0000000   6.0000000   6.0000000   6.0000000   6.0000000   6.0000000   7.0000000  16.0000000   8.0000000   8.0000000

  Atom        61          62          63          64          65          66          67          68          69          70
 IAtWgt=          12          35           1           1          19          19          19          19          16          12
 AtmWgt=  12.0000000  34.9688527   1.0078250   1.0078250  18.9984033  18.9984033  18.9984033  18.9984033  15.9949146  12.0000000
 NucSpn=           0           3           1           1           1           1           1           1           0           0
 AtZEff=  -3.6000000 -14.2400000  -1.0000000  -1.0000000  -6.7500000  -6.7500000  -6.7500000  -6.7500000  -5.6000000  -3.6000000
 NQMom=    0.0000000  -8.1650000   0.0000000   0.0000000   0.0000000   0.0000000   0.0000000   0.0000000   0.0000000   0.0000000
 NMagM=    0.0000000   0.8218740   2.7928460   2.7928460   2.6288670   2.6288670   2.6288670   2.6288670   0.0000000   0.0000000
 AtZNuc=   6.0000000  17.0000000   1.0000000   1.0000000   9.0000000   9.0000000   9.0000000   9.0000000   8.0000000   6.0000000

  Atom        71          72          73
 IAtWgt=           1           1           1
 AtmWgt=   1.0078250   1.0078250   1.0078250
 NucSpn=           1           1           1
 AtZEff=  -1.0000000  -1.0000000  -1.0000000
 NQMom=    0.0000000   0.0000000   0.0000000
 NMagM=    2.7928460   2.7928460   2.7928460
 AtZNuc=   1.0000000   1.0000000   1.0000000
 Leave Link  101 at Wed Nov 29 15:15:45 2023, MaxMem=  2147483648 cpu:         2.8
 (Enter /cluster/apps/gaussian/g09/l202.exe)
 Stoichiometry    C26H35ClF4NO3PPdS
 Framework group  C1[X(C26H35ClF4NO3PPdS)]
 Deg. of freedom   213
 Full point group                 C1      NOp   1
 RotChk:  IX=3 Diff= 5.17D-15
 Largest Abelian subgroup         C1      NOp   1
 Largest concise Abelian subgroup C1      NOp   1
                         Standard orientation:                         
 ---------------------------------------------------------------------
 Center     Atomic      Atomic             Coordinates (Angstroms)
 Number     Number       Type             X           Y           Z
 ---------------------------------------------------------------------
      1         46           0       -0.714025    0.406261   -0.777234
      2         15           0       -2.891321    0.263565   -0.038337
      3          6           0       -3.575593    2.050427   -0.017736
      4          6           0       -3.059632    2.751973   -1.284354
      5          1           0       -3.459394    2.336084   -2.214437
      6          1           0       -3.347996    3.815547   -1.244306
      7          1           0       -1.957922    2.711748   -1.341548
      8          6           0       -5.097521    2.174284    0.062331
      9          1           0       -5.602481    1.751736   -0.815946
     10          1           0       -5.368869    3.242375    0.107523
     11          1           0       -5.511368    1.693036    0.958201
     12          6           0       -2.951115    2.808964    1.158012
     13          1           0       -3.184034    3.880157    1.043272
     14          1           0       -3.347756    2.493114    2.131020
     15          1           0       -1.855094    2.706165    1.169883
     16          6           0       -3.961962   -0.801497   -1.210828
     17          6           0       -5.313013   -1.240640   -0.644968
     18          1           0       -5.937772   -0.393097   -0.333307
     19          1           0       -5.866242   -1.787962   -1.426394
     20          1           0       -5.207579   -1.921864    0.209681
     21          6           0       -4.190139   -0.035417   -2.518510
     22          1           0       -3.241209    0.319578   -2.948500
     23          1           0       -4.642371   -0.726707   -3.248155
     24          1           0       -4.874181    0.815704   -2.412264
     25          6           0       -3.133687   -2.033121   -1.603163
     26          1           0       -3.725810   -2.647532   -2.301642
     27          1           0       -2.212152   -1.725419   -2.117550
     28          1           0       -2.849722   -2.667404   -0.757321
     29          6           0       -2.972201   -0.463438    1.729732
     30          6           0       -4.292444   -0.225257    2.464577
     31          1           0       -4.474386    0.839983    2.660729
     32          1           0       -4.248592   -0.728846    3.444744
     33          1           0       -5.160245   -0.628129    1.927421
     34          6           0       -1.820500    0.128193    2.556053
     35          1           0       -0.856422    0.002758    2.044583
     36          1           0       -1.766106   -0.415108    3.513777
     37          1           0       -1.950839    1.189337    2.789424
     38          6           0       -2.698614   -1.969697    1.648260
     39          1           0       -1.766134   -2.186013    1.106763
     40          1           0       -2.580633   -2.354916    2.673994
     41          1           0       -3.518544   -2.532414    1.184170
     42          6           0        0.567077   -1.066179   -0.182861
     43          6           0        0.323863   -2.313811   -0.783293
     44          1           0       -0.085449   -2.368427   -1.791966
     45          6           0        0.567449   -3.470765   -0.057787
     46          1           0        0.329245   -4.450751   -0.476491
     47          6           0        1.106078   -3.418291    1.241776
     48          6           0        1.491229   -2.190049    1.777254
     49          1           0        2.009616   -2.122978    2.732100
     50          6           0        1.272619   -1.015265    1.039864
     51          6           0        1.878747    0.279790    1.288281
     52          6           0        2.417804    0.779826    2.470277
     53          6           0        3.010135    2.038052    2.497741
     54          6           0        3.053791    2.811518    1.336269
     55          6           0        2.501495    2.342927    0.143671
     56          6           0        1.938244    1.066137    0.107755
     57          7           0        1.304689    0.477918   -0.997631
     58         16           0        2.109719    0.134366   -2.429310
     59          8           0        1.129689   -0.530954   -3.271221
     60          8           0        2.848993    1.293399   -2.888049
     61          6           0        3.323504   -1.085517   -1.863887
     62         17           0        4.377234   -1.572565   -3.184350
     63          1           0        2.773948   -1.952109   -1.475097
     64          1           0        3.913107   -0.605665   -1.070802
     65          9           0        2.483218    3.150764   -0.896762
     66          9           0        3.579073    4.023329    1.385041
     67          9           0        3.515106    2.517364    3.622091
     68          9           0        2.365542    0.076101    3.598230
     69          8           0        1.255464   -4.604194    1.870006
     70          6           0        1.818016   -4.612774    3.150747
     71          1           0        1.227511   -4.007907    3.862244
     72          1           0        2.856730   -4.236570    3.147584
     73          1           0        1.821414   -5.656918    3.488212
 ---------------------------------------------------------------------
 Rotational constants (GHZ):      0.0977499      0.0660391      0.0643944
 Leave Link  202 at Wed Nov 29 15:15:45 2023, MaxMem=  2147483648 cpu:         0.6
 (Enter /cluster/apps/gaussian/g09/l301.exe)
 General basis read from cards:  (5D, 7F)
 Centers:       3      4      8     12     16     17     21     25     29     30
 Centers:      34     38     42     43     45     47     48     50     51     52
 Centers:      53     54     55     56     61     70      5      6      7      9
 Centers:      10     11     13     14     15     18     19     20     22     23
 Centers:      24     26     27     28     31     32     33     35     36     37
 Centers:      39     40     41     44     46     49     63     64     71     72
 Centers:      73     58     65     66     67     68     57      2     62     59
 Centers:      60     69      1
 def2tzvp
 ****
 ======================================================================================================
                                       Pseudopotential Parameters
 ======================================================================================================
  Center     Atomic      Valence      Angular      Power
  Number     Number     Electrons     Momentum     of R      Exponent        Coefficient   SO-Coeffient
 ======================================================================================================
    1         46           18
                                      G and up 
                                                     2        1.0000000        0.00000000    0.00000000
                                      S - G
                                                     2       12.4300000      240.22904000    0.00000000
                                                     2        6.1707590       35.17194300    0.00000000
                                      P - G
                                                     2       11.0800000      170.41727600    0.00000000
                                                     2        5.8295540       28.47213300    0.00000000
                                      D - G
                                                     2        9.5100000       69.01384500    0.00000000
                                                     2        4.1397810       11.75086200    0.00000000
                                      F - G
                                                     2       13.2700000      -31.92955400    0.00000000
                                                     2        6.6300000       -5.39821700    0.00000000
    2         15
                                   No pseudopotential on this center.
    3          6
                                   No pseudopotential on this center.
    4          6
                                   No pseudopotential on this center.
    5          1
                                   No pseudopotential on this center.
    6          1
                                   No pseudopotential on this center.
    7          1
                                   No pseudopotential on this center.
    8          6
                                   No pseudopotential on this center.
    9          1
                                   No pseudopotential on this center.
   10          1
                                   No pseudopotential on this center.
   11          1
                                   No pseudopotential on this center.
   12          6
                                   No pseudopotential on this center.
   13          1
                                   No pseudopotential on this center.
   14          1
                                   No pseudopotential on this center.
   15          1
                                   No pseudopotential on this center.
   16          6
                                   No pseudopotential on this center.
   17          6
                                   No pseudopotential on this center.
   18          1
                                   No pseudopotential on this center.
   19          1
                                   No pseudopotential on this center.
   20          1
                                   No pseudopotential on this center.
   21          6
                                   No pseudopotential on this center.
   22          1
                                   No pseudopotential on this center.
   23          1
                                   No pseudopotential on this center.
   24          1
                                   No pseudopotential on this center.
   25          6
                                   No pseudopotential on this center.
   26          1
                                   No pseudopotential on this center.
   27          1
                                   No pseudopotential on this center.
   28          1
                                   No pseudopotential on this center.
   29          6
                                   No pseudopotential on this center.
   30          6
                                   No pseudopotential on this center.
   31          1
                                   No pseudopotential on this center.
   32          1
                                   No pseudopotential on this center.
   33          1
                                   No pseudopotential on this center.
   34          6
                                   No pseudopotential on this center.
   35          1
                                   No pseudopotential on this center.
   36          1
                                   No pseudopotential on this center.
   37          1
                                   No pseudopotential on this center.
   38          6
                                   No pseudopotential on this center.
   39          1
                                   No pseudopotential on this center.
   40          1
                                   No pseudopotential on this center.
   41          1
                                   No pseudopotential on this center.
   42          6
                                   No pseudopotential on this center.
   43          6
                                   No pseudopotential on this center.
   44          1
                                   No pseudopotential on this center.
   45          6
                                   No pseudopotential on this center.
   46          1
                                   No pseudopotential on this center.
   47          6
                                   No pseudopotential on this center.
   48          6
                                   No pseudopotential on this center.
   49          1
                                   No pseudopotential on this center.
   50          6
                                   No pseudopotential on this center.
   51          6
                                   No pseudopotential on this center.
   52          6
                                   No pseudopotential on this center.
   53          6
                                   No pseudopotential on this center.
   54          6
                                   No pseudopotential on this center.
   55          6
                                   No pseudopotential on this center.
   56          6
                                   No pseudopotential on this center.
   57          7
                                   No pseudopotential on this center.
   58         16
                                   No pseudopotential on this center.
   59          8
                                   No pseudopotential on this center.
   60          8
                                   No pseudopotential on this center.
   61          6
                                   No pseudopotential on this center.
   62         17
                                   No pseudopotential on this center.
   63          1
                                   No pseudopotential on this center.
   64          1
                                   No pseudopotential on this center.
   65          9
                                   No pseudopotential on this center.
   66          9
                                   No pseudopotential on this center.
   67          9
                                   No pseudopotential on this center.
   68          9
                                   No pseudopotential on this center.
   69          8
                                   No pseudopotential on this center.
   70          6
                                   No pseudopotential on this center.
   71          1
                                   No pseudopotential on this center.
   72          1
                                   No pseudopotential on this center.
   73          1
                                   No pseudopotential on this center.
 ======================================================================================================
 Ernie: Thresh=  0.10000D-02 Tol=  0.10000D-05 Strict=F.
 There are  1606 symmetry adapted cartesian basis functions of A   symmetry.
 There are  1415 symmetry adapted basis functions of A   symmetry.
  1415 basis functions,  2295 primitive gaussians,  1606 cartesian basis functions
   162 alpha electrons      162 beta electrons
       nuclear repulsion energy      6114.3631185014 Hartrees.
 IExCor= 4639 DFT=T Ex+Corr=wB97XD ExCW=0 ScaHFX=  1.000000
 ScaDFX=  1.000000  1.000000  1.000000  1.000000 ScalE2=  1.000000  1.000000
 IRadAn=      5 IRanWt=     -1 IRanGd=            0 ICorTp=0 IEmpDi=121
  HFx wShort=  0.000000 wLong=  0.200000 cFull=  0.222036 cShort=  0.000000 cLong=  0.777964
  DFx wShort=  0.000000 wLong=  0.200000 cFull=  0.000000 cShort=  0.000000 cLong=  1.000000
 NAtoms=   73 NActive=   73 NUniq=   73 SFac= 1.00D+00 NAtFMM=   60 NAOKFM=T Big=T
 Integral buffers will be    131072 words long.
 Raffenetti 2 integral format.
 Two-electron integral symmetry is turned on.
 R6Disp:  Grimme-D2 Dispersion energy=       -0.0970987429 Hartrees.
 Nuclear repulsion after empirical dispersion term =     6114.2660197586 Hartrees.
 ------------------------------------------------------------------------------
 Polarizable Continuum Model (PCM)
 =================================
 Model                : PCM (using non-symmetric T matrix).
 Atomic radii         : SMD-Coulomb.
 Polarization charges : Total charges.
 Charge compensation  : None.
 Solution method      : On-the-fly selection.
 Cavity type          : VdW (van der Waals Surface) (Alpha=1.000).
 Cavity algorithm     : GePol (No added spheres)
                        Default sphere list used, NSphG=   73.
                        Lebedev-Laikov grids with approx.  5.0 points / Ang**2.
                        Smoothing algorithm: Karplus/York (Gamma=1.0000).
                        Polarization charges: spherical gaussians, with
                                              point-specific exponents (IZeta= 3).
                        Self-potential: point-specific (ISelfS= 7).
                        Self-field    : sphere-specific E.n sum rule (ISelfD= 2).
 Solvent              : Dichloromethane, Eps=   8.930000 Eps(inf)=   2.028346
 ------------------------------------------------------------------------------
 GePol: Number of generator spheres                  =      73
 GePol: Total number of spheres                      =      73
 GePol: Number of exposed spheres                    =      73 (100.00%)
 GePol: Number of points                             =    5055
 GePol: Average weight of points                     =       0.12
 GePol: Minimum weight of points                     =   0.28D-11
 GePol: Maximum weight of points                     =    0.21501
 GePol: Number of points with low weight             =     383
 GePol: Fraction of low-weight points (<1% of avg)   =       7.58%
 GePol: Cavity surface area                          =    589.984 Ang**2
 GePol: Cavity volume                                =    619.195 Ang**3
 ------------------------------------------------------------------------------
 Atomic radii for non-electrostatic terms: SMD-CDS.
 ------------------------------------------------------------------------------
 PCM non-electrostatic energy =        -0.0071501715 Hartrees.
 Nuclear repulsion after PCM non-electrostatic terms =     6114.2588695870 Hartrees.
 Leave Link  301 at Wed Nov 29 15:15:46 2023, MaxMem=  2147483648 cpu:         0.5
 (Enter /cluster/apps/gaussian/g09/l302.exe)
 NPDir=0 NMtPBC=     1 NCelOv=     1 NCel=       1 NClECP=     1 NCelD=      1
         NCelK=      1 NCelE2=     1 NClLst=     1 CellRange=     0.0.
 One-electron integrals computed using PRISM.
   1 Symmetry operations used in ECPInt.
 ECPInt:  NShTT=  161028 NPrTT=  493502 LenC2=  128073 LenP2D=  261137.
 LDataN:  DoStor=T MaxTD1= 7 Len=  274
 NBasis=  1415 RedAO= T EigKep=  4.92D-06  NBF=  1415
 NBsUse=  1415 1.00D-06 EigRej= -1.00D+00 NBFU=  1415
 Precomputing XC quadrature grid using
 IXCGrd= 4 IRadAn=           5 IRanWt=          -1 IRanGd=           0 AccXCQ= 0.00D+00.
 Defaulting to unpruned grid for atomic number  46.
 Generated NRdTot=       0 NPtTot=           0 NUsed=           0 NTot=          32
 NSgBfM=  1480  1483  1489  1489  1489 MxSgAt=    73 MxSgA2=    73.
 Leave Link  302 at Wed Nov 29 15:15:53 2023, MaxMem=  2147483648 cpu:        59.9
 (Enter /cluster/apps/gaussian/g09/l303.exe)
 DipDrv:  MaxL=1.
 Leave Link  303 at Wed Nov 29 15:15:54 2023, MaxMem=  2147483648 cpu:         4.1
 (Enter /cluster/apps/gaussian/g09/l401.exe)
 ExpMin= 3.70D-02 ExpMax= 6.95D+04 ExpMxC= 2.37D+03 IAcc=3 IRadAn=         5 AccDes= 0.00D+00
 Harris functional with IExCor= 4639 and IRadAn=       5 diagonalized for initial guess.
 HarFok:  IExCor= 4639 AccDes= 0.00D+00 IRadAn=         5 IDoV= 1 UseB2=F ITyADJ=14
 ICtDFT=  3500011 ScaDFX=  1.000000  1.000000  1.000000  1.000000
 Defaulting to unpruned grid for atomic number  46.
 Defaulting to unpruned grid for atomic number  46.
 Defaulting to unpruned grid for atomic number  46.
 Defaulting to unpruned grid for atomic number  46.
 Defaulting to unpruned grid for atomic number  46.
 Defaulting to unpruned grid for atomic number  46.
 Defaulting to unpruned grid for atomic number  46.
 Defaulting to unpruned grid for atomic number  46.
 FoFCou: FMM=F IPFlag=           0 FMFlag=      100000 FMFlg1=        2001
         NFxFlg=           0 DoJE=T BraDBF=F KetDBF=T FulRan=T
         wScrn=  0.000000 ICntrl=     500 IOpCl=  0 I1Cent=   200000004 NGrid=           0
         NMat0=    1 NMatS0=      1 NMatT0=    0 NMatD0=    1 NMtDS0=    0 NMtDT0=    0
 Petite list used in FoFCou.
 Harris En= -2925.50929982241    
 JPrj=0 DoOrth=F DoCkMO=F.
 Leave Link  401 at Wed Nov 29 15:16:29 2023, MaxMem=  2147483648 cpu:       276.9
 (Enter /cluster/apps/gaussian/g09/l502.exe)
 Closed shell SCF:
 Using DIIS extrapolation, IDIIS=  1040.
 Integral symmetry usage will be decided dynamically.
 IVT=     7780870 IEndB=     7780870 NGot=  2147483648 MDV=  2142300261
 LenX=  2142300261 LenY=  2139719419
 Requested convergence on RMS density matrix=1.00D-08 within 128 cycles.
 Requested convergence on MAX density matrix=1.00D-06.
 Requested convergence on             energy=1.00D-06.
 No special actions if energy rises.
 Fock matrices will be formed incrementally for  20 cycles.

 Cycle   1  Pass 1  IDiag  1:
 FoFJK:  IHMeth= 1 ICntrl=       0 DoSepK=T KAlg= 0 I1Cent=   0 FoldK=F
 IRaf=         1 NMat=   1 IRICut=       1 DoRegI=T DoRafI=F ISym2E= 0.
 FoFCou: FMM=T IPFlag=           0 FMFlag=      100000 FMFlg1=        2001
         NFxFlg=           0 DoJE=T BraDBF=F KetDBF=F FulRan=T
         wScrn=  0.000000 ICntrl=     500 IOpCl=  0 I1Cent=           0 NGrid=           0
         NMat0=    1 NMatS0=      1 NMatT0=    0 NMatD0=    1 NMtDS0=    0 NMtDT0=    0
 Symmetry not used in FoFCou.
 FMM levels:  10  Number of levels for PrismC:   9
 Defaulting to unpruned grid for atomic number  46.
 Defaulting to unpruned grid for atomic number  46.
 Defaulting to unpruned grid for atomic number  46.
 Defaulting to unpruned grid for atomic number  46.
 Defaulting to unpruned grid for atomic number  46.
 Defaulting to unpruned grid for atomic number  46.
 Defaulting to unpruned grid for atomic number  46.
 Defaulting to unpruned grid for atomic number  46.
 Inv3:  Mode=1 IEnd=    76659075.
 Iteration    1 A*A^-1 deviation from unit magnitude is 1.13D-14 for   5038.
 Iteration    1 A*A^-1 deviation from orthogonality  is 9.30D-15 for   5049   4331.
 Iteration    1 A^-1*A deviation from unit magnitude is 1.04D-14 for   5038.
 Iteration    1 A^-1*A deviation from orthogonality  is 1.25D-10 for   4656   3251.
 Iteration    2 A*A^-1 deviation from unit magnitude is 3.33D-15 for    665.
 Iteration    2 A*A^-1 deviation from orthogonality  is 2.96D-15 for   2339   1755.
 Iteration    2 A^-1*A deviation from unit magnitude is 1.11D-15 for   4366.
 Iteration    2 A^-1*A deviation from orthogonality  is 5.18D-16 for   5054   1559.
 E= -3010.74955762343    
 DIIS: error= 5.00D-02 at cycle   1 NSaved=   1.
 NSaved= 1 IEnMin= 1 EnMin= -3010.74955762343     IErMin= 1 ErrMin= 5.00D-02
 ErrMax= 5.00D-02  0.00D+00 EMaxC= 1.00D-01 BMatC= 1.28D+01 BMatP= 1.28D+01
 IDIUse=3 WtCom= 5.00D-01 WtEn= 5.00D-01
 Coeff-Com:  0.100D+01
 Coeff-En:   0.100D+01
 Coeff:      0.100D+01
 Gap=     0.539 Goal=   None    Shift=    0.000
 GapD=    0.539 DampG=2.000 DampE=0.250 DampFc=0.5000 IDamp=-1.
 Damping current iteration by 5.00D-01
 RMSDP=2.80D-02 MaxDP=1.09D+01              OVMax= 9.82D-01

 Cycle   2  Pass 1  IDiag  1:
 RMSU=  1.40D-02    CP:  9.01D-01
 E= -3011.54411688736     Delta-E=       -0.794559263928 Rises=F Damp=T
 DIIS: error= 1.96D-02 at cycle   2 NSaved=   2.
 NSaved= 2 IEnMin= 2 EnMin= -3011.54411688736     IErMin= 2 ErrMin= 1.96D-02
 ErrMax= 1.96D-02  0.00D+00 EMaxC= 1.00D-01 BMatC= 3.37D+00 BMatP= 1.28D+01
 IDIUse=3 WtCom= 8.04D-01 WtEn= 1.96D-01
 Coeff-Com:  0.193D+00 0.807D+00
 Coeff-En:   0.466D+00 0.534D+00
 Coeff:      0.247D+00 0.753D+00
 Gap=     0.769 Goal=   None    Shift=    0.000
 RMSDP=1.43D-02 MaxDP=4.82D+00 DE=-7.95D-01 OVMax= 5.38D-01

 Cycle   3  Pass 1  IDiag  1:
 RMSU=  4.29D-03    CP:  3.61D-01  1.14D-01
 E= -3017.90635584917     Delta-E=       -6.362238961809 Rises=F Damp=F
 DIIS: error= 1.76D-02 at cycle   3 NSaved=   3.
 NSaved= 3 IEnMin= 3 EnMin= -3017.90635584917     IErMin= 3 ErrMin= 1.76D-02
 ErrMax= 1.76D-02  0.00D+00 EMaxC= 1.00D-01 BMatC= 1.56D+00 BMatP= 3.37D+00
 IDIUse=3 WtCom= 8.24D-01 WtEn= 1.76D-01
 Coeff-Com:  0.696D-01 0.321D+00 0.609D+00
 Coeff-En:   0.000D+00 0.000D+00 0.100D+01
 Coeff:      0.574D-01 0.265D+00 0.678D+00
 Gap=     0.330 Goal=   None    Shift=    0.000
 RMSDP=2.30D-03 MaxDP=4.13D-01 DE=-6.36D+00 OVMax= 5.44D-01

 Cycle   4  Pass 1  IDiag  1:
 RMSU=  2.21D-03    CP:  3.84D-01  1.07D-01  8.70D-01
 E= -3018.81024493738     Delta-E=       -0.903889088208 Rises=F Damp=F
 DIIS: error= 1.26D-02 at cycle   4 NSaved=   4.
 NSaved= 4 IEnMin= 4 EnMin= -3018.81024493738     IErMin= 4 ErrMin= 1.26D-02
 ErrMax= 1.26D-02  0.00D+00 EMaxC= 1.00D-01 BMatC= 7.95D-01 BMatP= 1.56D+00
 IDIUse=3 WtCom= 8.74D-01 WtEn= 1.26D-01
 Coeff-Com:  0.260D-02 0.673D-01 0.394D+00 0.536D+00
 Coeff-En:   0.000D+00 0.000D+00 0.296D+00 0.704D+00
 Coeff:      0.227D-02 0.588D-01 0.382D+00 0.557D+00
 Gap=     0.276 Goal=   None    Shift=    0.000
 RMSDP=1.68D-03 MaxDP=4.98D-01 DE=-9.04D-01 OVMax= 2.93D-01

 Cycle   5  Pass 1  IDiag  1:
 RMSU=  1.04D-03    CP:  3.42D-01  7.49D-02  9.27D-01  4.91D-01
 E= -3019.40426523232     Delta-E=       -0.594020294944 Rises=F Damp=F
 DIIS: error= 4.80D-03 at cycle   5 NSaved=   5.
 NSaved= 5 IEnMin= 5 EnMin= -3019.40426523232     IErMin= 5 ErrMin= 4.80D-03
 ErrMax= 4.80D-03  0.00D+00 EMaxC= 1.00D-01 BMatC= 1.05D-01 BMatP= 7.95D-01
 IDIUse=3 WtCom= 9.52D-01 WtEn= 4.80D-02
 Coeff-Com:  0.728D-02-0.796D-02 0.119D+00 0.297D+00 0.585D+00
 Coeff-En:   0.000D+00 0.000D+00 0.000D+00 0.508D-01 0.949D+00
 Coeff:      0.693D-02-0.757D-02 0.113D+00 0.285D+00 0.602D+00
 Gap=     0.259 Goal=   None    Shift=    0.000
 RMSDP=5.47D-04 MaxDP=9.80D-02 DE=-5.94D-01 OVMax= 8.21D-02

 Cycle   6  Pass 1  IDiag  1:
 RMSU=  4.03D-04    CP:  3.38D-01  6.83D-02  9.18D-01  5.97D-01  7.46D-01
 E= -3019.48578114905     Delta-E=       -0.081515916732 Rises=F Damp=F
 DIIS: error= 1.08D-03 at cycle   6 NSaved=   6.
 NSaved= 6 IEnMin= 6 EnMin= -3019.48578114905     IErMin= 6 ErrMin= 1.08D-03
 ErrMax= 1.08D-03  0.00D+00 EMaxC= 1.00D-01 BMatC= 7.66D-03 BMatP= 1.05D-01
 IDIUse=3 WtCom= 9.89D-01 WtEn= 1.08D-02
 Coeff-Com:  0.525D-02-0.137D-01-0.536D-02 0.257D-01 0.230D+00 0.758D+00
 Coeff-En:   0.000D+00 0.000D+00 0.000D+00 0.000D+00 0.000D+00 0.100D+01
 Coeff:      0.519D-02-0.135D-01-0.530D-02 0.255D-01 0.227D+00 0.761D+00
 Gap=     0.256 Goal=   None    Shift=    0.000
 RMSDP=1.62D-04 MaxDP=3.08D-02 DE=-8.15D-02 OVMax= 2.61D-02

 Cycle   7  Pass 1  IDiag  1:
 RMSU=  1.03D-04    CP:  3.36D-01  6.44D-02  9.18D-01  5.78D-01  8.42D-01
                    CP:  9.71D-01
 E= -3019.49289035795     Delta-E=       -0.007109208893 Rises=F Damp=F
 DIIS: error= 4.80D-04 at cycle   7 NSaved=   7.
 NSaved= 7 IEnMin= 7 EnMin= -3019.49289035795     IErMin= 7 ErrMin= 4.80D-04
 ErrMax= 4.80D-04  0.00D+00 EMaxC= 1.00D-01 BMatC= 1.10D-03 BMatP= 7.66D-03
 IDIUse=3 WtCom= 9.95D-01 WtEn= 4.80D-03
 Coeff-Com:  0.905D-03-0.247D-02-0.909D-02-0.205D-01 0.108D-01 0.308D+00
 Coeff-Com:  0.713D+00
 Coeff-En:   0.000D+00 0.000D+00 0.000D+00 0.000D+00 0.000D+00 0.000D+00
 Coeff-En:   0.100D+01
 Coeff:      0.901D-03-0.246D-02-0.904D-02-0.204D-01 0.107D-01 0.306D+00
 Coeff:      0.714D+00
 Gap=     0.256 Goal=   None    Shift=    0.000
 RMSDP=4.70D-05 MaxDP=1.09D-02 DE=-7.11D-03 OVMax= 7.48D-03

 Cycle   8  Pass 1  IDiag  1:
 RMSU=  3.68D-05    CP:  3.35D-01  6.36D-02  9.18D-01  5.75D-01  8.52D-01
                    CP:  1.01D+00  1.12D+00
 E= -3019.49395877808     Delta-E=       -0.001068420132 Rises=F Damp=F
 DIIS: error= 1.91D-04 at cycle   8 NSaved=   8.
 NSaved= 8 IEnMin= 8 EnMin= -3019.49395877808     IErMin= 8 ErrMin= 1.91D-04
 ErrMax= 1.91D-04  0.00D+00 EMaxC= 1.00D-01 BMatC= 1.69D-04 BMatP= 1.10D-03
 IDIUse=3 WtCom= 9.98D-01 WtEn= 1.91D-03
 Coeff-Com: -0.519D-03 0.108D-02-0.321D-02-0.112D-01-0.178D-01 0.697D-01
 Coeff-Com:  0.325D+00 0.637D+00
 Coeff-En:   0.000D+00 0.000D+00 0.000D+00 0.000D+00 0.000D+00 0.000D+00
 Coeff-En:   0.000D+00 0.100D+01
 Coeff:     -0.518D-03 0.108D-02-0.321D-02-0.112D-01-0.178D-01 0.696D-01
 Coeff:      0.325D+00 0.637D+00
 Gap=     0.257 Goal=   None    Shift=    0.000
 RMSDP=2.36D-05 MaxDP=3.41D-03 DE=-1.07D-03 OVMax= 4.99D-03

 Cycle   9  Pass 1  IDiag  1:
 RMSU=  1.84D-05    CP:  3.35D-01  6.37D-02  9.18D-01  5.75D-01  8.45D-01
                    CP:  1.04D+00  1.16D+00  1.05D+00
 E= -3019.49417515546     Delta-E=       -0.000216377384 Rises=F Damp=F
 DIIS: error= 6.80D-05 at cycle   9 NSaved=   9.
 NSaved= 9 IEnMin= 9 EnMin= -3019.49417515546     IErMin= 9 ErrMin= 6.80D-05
 ErrMax= 6.80D-05  0.00D+00 EMaxC= 1.00D-01 BMatC= 1.38D-05 BMatP= 1.69D-04
 IDIUse=1 WtCom= 1.00D+00 WtEn= 0.00D+00
 Coeff-Com: -0.410D-03 0.354D-03-0.837D-03-0.952D-04-0.401D-02-0.254D-01
 Coeff-Com: -0.258D-01 0.110D+00 0.946D+00
 Coeff:     -0.410D-03 0.354D-03-0.837D-03-0.952D-04-0.401D-02-0.254D-01
 Coeff:     -0.258D-01 0.110D+00 0.946D+00
 Gap=     0.257 Goal=   None    Shift=    0.000
 RMSDP=1.44D-05 MaxDP=2.70D-03 DE=-2.16D-04 OVMax= 4.07D-03

 Cycle  10  Pass 1  IDiag  1:
 RMSU=  7.56D-06    CP:  3.34D-01  6.37D-02  9.17D-01  5.76D-01  8.48D-01
                    CP:  1.05D+00  1.21D+00  1.25D+00  1.40D+00
 E= -3019.49423296625     Delta-E=       -0.000057810788 Rises=F Damp=F
 DIIS: error= 2.80D-05 at cycle  10 NSaved=  10.
 NSaved=10 IEnMin=10 EnMin= -3019.49423296625     IErMin=10 ErrMin= 2.80D-05
 ErrMax= 2.80D-05  0.00D+00 EMaxC= 1.00D-01 BMatC= 3.01D-06 BMatP= 1.38D-05
 IDIUse=1 WtCom= 1.00D+00 WtEn= 0.00D+00
 Coeff-Com: -0.319D-04-0.703D-04-0.118D-03 0.118D-02 0.565D-03-0.186D-01
 Coeff-Com: -0.545D-01-0.627D-01 0.270D+00 0.864D+00
 Coeff:     -0.319D-04-0.703D-04-0.118D-03 0.118D-02 0.565D-03-0.186D-01
 Coeff:     -0.545D-01-0.627D-01 0.270D+00 0.864D+00
 Gap=     0.257 Goal=   None    Shift=    0.000
 RMSDP=7.06D-06 MaxDP=1.23D-03 DE=-5.78D-05 OVMax= 2.12D-03

 Cycle  11  Pass 1  IDiag  1:
 RMSU=  2.91D-06    CP:  3.34D-01  6.37D-02  9.17D-01  5.76D-01  8.49D-01
                    CP:  1.05D+00  1.23D+00  1.33D+00  1.66D+00  1.31D+00
 E= -3019.49424480417     Delta-E=       -0.000011837919 Rises=F Damp=F
 DIIS: error= 1.13D-05 at cycle  11 NSaved=  11.
 NSaved=11 IEnMin=11 EnMin= -3019.49424480417     IErMin=11 ErrMin= 1.13D-05
 ErrMax= 1.13D-05  0.00D+00 EMaxC= 1.00D-01 BMatC= 9.22D-07 BMatP= 3.01D-06
 IDIUse=1 WtCom= 1.00D+00 WtEn= 0.00D+00
 Coeff-Com:  0.760D-04-0.775D-04 0.212D-03 0.419D-03-0.430D-03-0.464D-02
 Coeff-Com: -0.173D-01-0.324D-01-0.762D-01 0.335D+00 0.795D+00
 Coeff:      0.760D-04-0.775D-04 0.212D-03 0.419D-03-0.430D-03-0.464D-02
 Coeff:     -0.173D-01-0.324D-01-0.762D-01 0.335D+00 0.795D+00
 Gap=     0.257 Goal=   None    Shift=    0.000
 RMSDP=3.26D-06 MaxDP=6.11D-04 DE=-1.18D-05 OVMax= 9.10D-04

 Cycle  12  Pass 1  IDiag  1:
 RMSU=  1.33D-06    CP:  3.34D-01  6.37D-02  9.17D-01  5.76D-01  8.49D-01
                    CP:  1.05D+00  1.24D+00  1.36D+00  1.75D+00  1.50D+00
                    CP:  1.30D+00
 E= -3019.49424720775     Delta-E=       -0.000002403576 Rises=F Damp=F
 DIIS: error= 5.32D-06 at cycle  12 NSaved=  12.
 NSaved=12 IEnMin=12 EnMin= -3019.49424720775     IErMin=12 ErrMin= 5.32D-06
 ErrMax= 5.32D-06  0.00D+00 EMaxC= 1.00D-01 BMatC= 2.35D-07 BMatP= 9.22D-07
 IDIUse=1 WtCom= 1.00D+00 WtEn= 0.00D+00
 Coeff-Com:  0.368D-04-0.169D-04 0.192D-03-0.506D-04-0.118D-02-0.545D-04
 Coeff-Com:  0.353D-02 0.108D-01-0.598D-01-0.575D-01 0.244D+00 0.860D+00
 Coeff:      0.368D-04-0.169D-04 0.192D-03-0.506D-04-0.118D-02-0.545D-04
 Coeff:      0.353D-02 0.108D-01-0.598D-01-0.575D-01 0.244D+00 0.860D+00
 Gap=     0.257 Goal=   None    Shift=    0.000
 RMSDP=1.30D-06 MaxDP=2.29D-04 DE=-2.40D-06 OVMax= 3.96D-04

 Cycle  13  Pass 1  IDiag  1:
 RMSU=  5.80D-07    CP:  3.34D-01  6.36D-02  9.17D-01  5.76D-01  8.49D-01
                    CP:  1.05D+00  1.24D+00  1.37D+00  1.77D+00  1.55D+00
                    CP:  1.54D+00  1.35D+00
 E= -3019.49424775462     Delta-E=       -0.000000546877 Rises=F Damp=F
 DIIS: error= 2.27D-06 at cycle  13 NSaved=  13.
 NSaved=13 IEnMin=13 EnMin= -3019.49424775462     IErMin=13 ErrMin= 2.27D-06
 ErrMax= 2.27D-06  0.00D+00 EMaxC= 1.00D-01 BMatC= 3.42D-08 BMatP= 2.35D-07
 IDIUse=1 WtCom= 1.00D+00 WtEn= 0.00D+00
 Coeff-Com:  0.577D-06 0.614D-05 0.514D-04-0.606D-04-0.305D-03 0.839D-03
 Coeff-Com:  0.420D-02 0.102D-01 0.312D-02-0.932D-01-0.113D+00 0.290D+00
 Coeff-Com:  0.899D+00
 Coeff:      0.577D-06 0.614D-05 0.514D-04-0.606D-04-0.305D-03 0.839D-03
 Coeff:      0.420D-02 0.102D-01 0.312D-02-0.932D-01-0.113D+00 0.290D+00
 Coeff:      0.899D+00
 Gap=     0.257 Goal=   None    Shift=    0.000
 RMSDP=6.35D-07 MaxDP=8.34D-05 DE=-5.47D-07 OVMax= 2.27D-04

 Cycle  14  Pass 1  IDiag  1:
 RMSU=  2.79D-07    CP:  3.34D-01  6.36D-02  9.17D-01  5.76D-01  8.49D-01
                    CP:  1.05D+00  1.25D+00  1.38D+00  1.78D+00  1.57D+00
                    CP:  1.63D+00  1.60D+00  1.44D+00
 E= -3019.49424788412     Delta-E=       -0.000000129497 Rises=F Damp=F
 DIIS: error= 8.83D-07 at cycle  14 NSaved=  14.
 NSaved=14 IEnMin=14 EnMin= -3019.49424788412     IErMin=14 ErrMin= 8.83D-07
 ErrMax= 8.83D-07  0.00D+00 EMaxC= 1.00D-01 BMatC= 6.63D-09 BMatP= 3.42D-08
 IDIUse=1 WtCom= 1.00D+00 WtEn= 0.00D+00
 Coeff-Com: -0.495D-05 0.436D-05-0.177D-04-0.158D-04 0.173D-03 0.507D-03
 Coeff-Com:  0.907D-03 0.618D-03 0.911D-02-0.202D-01-0.739D-01-0.439D-01
 Coeff-Com:  0.311D+00 0.816D+00
 Coeff:     -0.495D-05 0.436D-05-0.177D-04-0.158D-04 0.173D-03 0.507D-03
 Coeff:      0.907D-03 0.618D-03 0.911D-02-0.202D-01-0.739D-01-0.439D-01
 Coeff:      0.311D+00 0.816D+00
 Gap=     0.257 Goal=   None    Shift=    0.000
 RMSDP=2.39D-07 MaxDP=2.90D-05 DE=-1.29D-07 OVMax= 8.17D-05

 Cycle  15  Pass 1  IDiag  1:
 RMSU=  1.12D-07    CP:  3.34D-01  6.36D-02  9.17D-01  5.76D-01  8.49D-01
                    CP:  1.05D+00  1.25D+00  1.38D+00  1.78D+00  1.57D+00
                    CP:  1.65D+00  1.67D+00  1.69D+00  1.30D+00
 E= -3019.49424790348     Delta-E=       -0.000000019361 Rises=F Damp=F
 DIIS: error= 5.43D-07 at cycle  15 NSaved=  15.
 NSaved=15 IEnMin=15 EnMin= -3019.49424790348     IErMin=15 ErrMin= 5.43D-07
 ErrMax= 5.43D-07  0.00D+00 EMaxC= 1.00D-01 BMatC= 1.69D-09 BMatP= 6.63D-09
 IDIUse=1 WtCom= 1.00D+00 WtEn= 0.00D+00
 Coeff-Com: -0.224D-05 0.868D-06-0.208D-04-0.286D-05 0.154D-03 0.185D-03
 Coeff-Com: -0.129D-03-0.161D-02 0.220D-02 0.591D-02-0.135D-01-0.609D-01
 Coeff-Com: -0.171D-01 0.357D+00 0.728D+00
 Coeff:     -0.224D-05 0.868D-06-0.208D-04-0.286D-05 0.154D-03 0.185D-03
 Coeff:     -0.129D-03-0.161D-02 0.220D-02 0.591D-02-0.135D-01-0.609D-01
 Coeff:     -0.171D-01 0.357D+00 0.728D+00
 Gap=     0.257 Goal=   None    Shift=    0.000
 RMSDP=9.26D-08 MaxDP=1.17D-05 DE=-1.94D-08 OVMax= 3.43D-05

 Cycle  16  Pass 1  IDiag  1:
 RMSU=  4.79D-08    CP:  3.34D-01  6.36D-02  9.17D-01  5.76D-01  8.49D-01
                    CP:  1.05D+00  1.25D+00  1.38D+00  1.78D+00  1.57D+00
                    CP:  1.66D+00  1.69D+00  1.76D+00  1.49D+00  1.25D+00
 E= -3019.49424790703     Delta-E=       -0.000000003545 Rises=F Damp=F
 DIIS: error= 1.97D-07 at cycle  16 NSaved=  16.
 NSaved=16 IEnMin=16 EnMin= -3019.49424790703     IErMin=16 ErrMin= 1.97D-07
 ErrMax= 1.97D-07  0.00D+00 EMaxC= 1.00D-01 BMatC= 2.73D-10 BMatP= 1.69D-09
 IDIUse=1 WtCom= 1.00D+00 WtEn= 0.00D+00
 Coeff-Com: -0.248D-06-0.176D-06-0.777D-05-0.308D-05 0.244D-04 0.713D-05
 Coeff-Com: -0.927D-04-0.642D-03-0.122D-02 0.508D-02 0.733D-02-0.106D-01
 Coeff-Com: -0.659D-01-0.364D-01 0.278D+00 0.825D+00
 Coeff:     -0.248D-06-0.176D-06-0.777D-05-0.308D-05 0.244D-04 0.713D-05
 Coeff:     -0.927D-04-0.642D-03-0.122D-02 0.508D-02 0.733D-02-0.106D-01
 Coeff:     -0.659D-01-0.364D-01 0.278D+00 0.825D+00
 Gap=     0.257 Goal=   None    Shift=    0.000
 RMSDP=4.90D-08 MaxDP=6.59D-06 DE=-3.55D-09 OVMax= 1.69D-05

 Cycle  17  Pass 1  IDiag  1:
 RMSU=  2.36D-08    CP:  3.34D-01  6.36D-02  9.17D-01  5.76D-01  8.49D-01
                    CP:  1.05D+00  1.25D+00  1.38D+00  1.78D+00  1.57D+00
                    CP:  1.66D+00  1.70D+00  1.80D+00  1.57D+00  1.45D+00
                    CP:  1.32D+00
 E= -3019.49424790797     Delta-E=       -0.000000000940 Rises=F Damp=F
 DIIS: error= 6.75D-08 at cycle  17 NSaved=  17.
 NSaved=17 IEnMin=17 EnMin= -3019.49424790797     IErMin=17 ErrMin= 6.75D-08
 ErrMax= 6.75D-08  0.00D+00 EMaxC= 1.00D-01 BMatC= 3.61D-11 BMatP= 2.73D-10
 IDIUse=1 WtCom= 1.00D+00 WtEn= 0.00D+00
 Coeff-Com:  0.402D-07 0.420D-07 0.127D-06-0.958D-06-0.179D-04-0.297D-04
 Coeff-Com: -0.922D-05 0.401D-04-0.746D-03 0.870D-03 0.446D-02 0.568D-02
 Coeff-Com: -0.191D-01-0.703D-01-0.263D-01 0.265D+00 0.840D+00
 Coeff:      0.402D-07 0.420D-07 0.127D-06-0.958D-06-0.179D-04-0.297D-04
 Coeff:     -0.922D-05 0.401D-04-0.746D-03 0.870D-03 0.446D-02 0.568D-02
 Coeff:     -0.191D-01-0.703D-01-0.263D-01 0.265D+00 0.840D+00
 Gap=     0.257 Goal=   None    Shift=    0.000
 RMSDP=2.42D-08 MaxDP=2.51D-06 DE=-9.40D-10 OVMax= 6.21D-06

 Cycle  18  Pass 1  IDiag  1:
 RMSU=  1.40D-08    CP:  3.34D-01  6.36D-02  9.17D-01  5.76D-01  8.49D-01
                    CP:  1.05D+00  1.25D+00  1.38D+00  1.78D+00  1.57D+00
                    CP:  1.66D+00  1.70D+00  1.81D+00  1.59D+00  1.52D+00
                    CP:  1.55D+00  1.43D+00
 E= -3019.49424790768     Delta-E=        0.000000000293 Rises=F Damp=F
 DIIS: error= 3.41D-08 at cycle  18 NSaved=  18.
 NSaved=18 IEnMin=17 EnMin= -3019.49424790797     IErMin=18 ErrMin= 3.41D-08
 ErrMax= 3.41D-08  0.00D+00 EMaxC= 1.00D-01 BMatC= 6.96D-12 BMatP= 3.61D-11
 IDIUse=1 WtCom= 1.00D+00 WtEn= 0.00D+00
 Coeff-Com:  0.254D-07 0.104D-06 0.142D-05 0.563D-06-0.974D-05-0.162D-04
 Coeff-Com: -0.828D-05 0.912D-04-0.966D-04-0.211D-03 0.830D-03 0.390D-02
 Coeff-Com:  0.253D-02-0.236D-01-0.537D-01-0.272D-01 0.314D+00 0.784D+00
 Coeff:      0.254D-07 0.104D-06 0.142D-05 0.563D-06-0.974D-05-0.162D-04
 Coeff:     -0.828D-05 0.912D-04-0.966D-04-0.211D-03 0.830D-03 0.390D-02
 Coeff:      0.253D-02-0.236D-01-0.537D-01-0.272D-01 0.314D+00 0.784D+00
 Gap=     0.257 Goal=   None    Shift=    0.000
 RMSDP=1.71D-08 MaxDP=1.05D-06 DE= 2.93D-10 OVMax= 2.36D-06

 Cycle  19  Pass 1  IDiag  1:
 RMSU=  1.00D-08    CP:  3.34D-01  6.36D-02  9.17D-01  5.76D-01  8.49D-01
                    CP:  1.05D+00  1.25D+00  1.38D+00  1.78D+00  1.57D+00
                    CP:  1.66D+00  1.70D+00  1.81D+00  1.59D+00  1.55D+00
                    CP:  1.65D+00  1.75D+00  1.68D+00
 E= -3019.49424790795     Delta-E=       -0.000000000275 Rises=F Damp=F
 DIIS: error= 2.50D-08 at cycle  19 NSaved=  19.
 NSaved=19 IEnMin=17 EnMin= -3019.49424790797     IErMin=19 ErrMin= 2.50D-08
 ErrMax= 2.50D-08  0.00D+00 EMaxC= 1.00D-01 BMatC= 1.19D-12 BMatP= 6.96D-12
 IDIUse=1 WtCom= 1.00D+00 WtEn= 0.00D+00
 Coeff-Com: -0.162D-07 0.350D-07 0.398D-06 0.120D-06 0.257D-06 0.326D-06
 Coeff-Com:  0.443D-06 0.230D-04 0.711D-04-0.150D-03-0.452D-03 0.280D-03
 Coeff-Com:  0.337D-02 0.279D-02-0.118D-01-0.444D-01-0.206D-01 0.232D+00
 Coeff-Com:  0.839D+00
 Coeff:     -0.162D-07 0.350D-07 0.398D-06 0.120D-06 0.257D-06 0.326D-06
 Coeff:      0.443D-06 0.230D-04 0.711D-04-0.150D-03-0.452D-03 0.280D-03
 Coeff:      0.337D-02 0.279D-02-0.118D-01-0.444D-01-0.206D-01 0.232D+00
 Coeff:      0.839D+00
 Gap=     0.257 Goal=   None    Shift=    0.000
 RMSDP=2.26D-08 MaxDP=1.42D-06 DE=-2.75D-10 OVMax= 1.07D-06

 Cycle  20  Pass 1  IDiag  1:
 RMSU=  1.06D-08    CP:  3.34D-01  6.36D-02  9.17D-01  5.76D-01  8.49D-01
                    CP:  1.05D+00  1.25D+00  1.38D+00  1.78D+00  1.57D+00
                    CP:  1.66D+00  1.70D+00  1.81D+00  1.59D+00  1.56D+00
                    CP:  1.70D+00  2.00D+00  2.59D+00  2.36D+00
 E= -3019.49424790794     Delta-E=        0.000000000013 Rises=F Damp=F
 DIIS: error= 4.31D-08 at cycle  20 NSaved=  20.
 NSaved=20 IEnMin=17 EnMin= -3019.49424790797     IErMin=19 ErrMin= 2.50D-08
 ErrMax= 4.31D-08  0.00D+00 EMaxC= 1.00D-01 BMatC= 8.86D-13 BMatP= 1.19D-12
 IDIUse=1 WtCom= 1.00D+00 WtEn= 0.00D+00
 Coeff-Com: -0.840D-08 0.119D-07 0.177D-06 0.135D-06 0.134D-05 0.118D-05
 Coeff-Com: -0.209D-05-0.391D-07 0.380D-04-0.225D-04-0.272D-03-0.929D-04
 Coeff-Com:  0.160D-02 0.306D-02-0.282D-02-0.230D-01-0.359D-01 0.706D-01
 Coeff-Com:  0.528D+00 0.459D+00
 Coeff:     -0.840D-08 0.119D-07 0.177D-06 0.135D-06 0.134D-05 0.118D-05
 Coeff:     -0.209D-05-0.391D-07 0.380D-04-0.225D-04-0.272D-03-0.929D-04
 Coeff:      0.160D-02 0.306D-02-0.282D-02-0.230D-01-0.359D-01 0.706D-01
 Coeff:      0.528D+00 0.459D+00
 Gap=     0.257 Goal=   None    Shift=    0.000
 RMSDP=1.99D-08 MaxDP=1.24D-06 DE= 1.27D-11 OVMax= 2.88D-07

 Cycle  21  Pass 1  IDiag  1:
 Restarting incremental Fock formation.
 E= -3019.49424791053     Delta-E=       -0.000000002590 Rises=F Damp=F
 DIIS: error= 1.06D-07 at cycle  21 NSaved=  20.
 NSaved=20 IEnMin=20 EnMin= -3019.49424791053     IErMin=18 ErrMin= 2.50D-08
 ErrMax= 1.06D-07  0.00D+00 EMaxC= 1.00D-01 BMatC= 8.54D-12 BMatP= 8.86D-13
 IDIUse=1 WtCom= 1.00D+00 WtEn= 0.00D+00
 Coeff-Com:  0.539D-09 0.111D-06 0.127D-06 0.164D-05 0.163D-05-0.237D-05
 Coeff-Com: -0.639D-05 0.261D-04 0.868D-05-0.220D-03-0.200D-03 0.111D-02
 Coeff-Com:  0.326D-02-0.133D-03-0.172D-01-0.426D-01 0.211D-01 0.430D+00
 Coeff-Com:  0.479D+00 0.126D+00
 Coeff:      0.539D-09 0.111D-06 0.127D-06 0.164D-05 0.163D-05-0.237D-05
 Coeff:     -0.639D-05 0.261D-04 0.868D-05-0.220D-03-0.200D-03 0.111D-02
 Coeff:      0.326D-02-0.133D-03-0.172D-01-0.426D-01 0.211D-01 0.430D+00
 Coeff:      0.479D+00 0.126D+00
 Gap=     0.257 Goal=   None    Shift=    0.000
 RMSDP=1.43D-08 MaxDP=1.10D-06 DE=-2.59D-09 OVMax= 1.19D-07

 Cycle  22  Pass 1  IDiag  1:
 RMSU=  1.43D-08    CP:  1.00D+00
 E= -3019.49424791050     Delta-E=        0.000000000033 Rises=F Damp=F
 DIIS: error= 9.42D-08 at cycle  22 NSaved=  20.
 NSaved=20 IEnMin=19 EnMin= -3019.49424791053     IErMin=17 ErrMin= 2.50D-08
 ErrMax= 9.42D-08  0.00D+00 EMaxC= 1.00D-01 BMatC= 7.08D-12 BMatP= 8.86D-13
 IDIUse=1 WtCom= 1.00D+00 WtEn= 0.00D+00
 Coeff-Com:  0.326D-07 0.603D-07 0.135D-05 0.139D-05-0.138D-05-0.620D-05
 Coeff-Com:  0.196D-04 0.146D-04-0.172D-03-0.250D-03 0.620D-03 0.274D-02
 Coeff-Com:  0.159D-02-0.954D-02-0.356D-01-0.124D-01 0.273D+00 0.541D+00
 Coeff-Com: -0.124D+01 0.148D+01
 Coeff:      0.326D-07 0.603D-07 0.135D-05 0.139D-05-0.138D-05-0.620D-05
 Coeff:      0.196D-04 0.146D-04-0.172D-03-0.250D-03 0.620D-03 0.274D-02
 Coeff:      0.159D-02-0.954D-02-0.356D-01-0.124D-01 0.273D+00 0.541D+00
 Coeff:     -0.124D+01 0.148D+01
 Gap=     0.257 Goal=   None    Shift=    0.000
 RMSDP=2.27D-08 MaxDP=1.76D-06 DE= 3.27D-11 OVMax= 1.90D-07

 Cycle  23  Pass 1  IDiag  1:
 RMSU=  1.69D-08    CP:  1.00D+00  2.05D+00
 E= -3019.49424791028     Delta-E=        0.000000000216 Rises=F Damp=F
 DIIS: error= 9.84D-08 at cycle  23 NSaved=  20.
 NSaved=20 IEnMin=18 EnMin= -3019.49424791053     IErMin=16 ErrMin= 2.50D-08
 ErrMax= 9.84D-08  0.00D+00 EMaxC= 1.00D-01 BMatC= 6.16D-12 BMatP= 8.86D-13
 IDIUse=1 WtCom= 1.00D+00 WtEn= 0.00D+00
 Coeff-Com:  0.464D-07 0.128D-05 0.136D-05-0.143D-05-0.758D-05 0.144D-04
 Coeff-Com:  0.252D-04-0.132D-03-0.253D-03 0.405D-03 0.244D-02 0.200D-02
 Coeff-Com: -0.709D-02-0.321D-01-0.188D-01 0.229D+00 0.554D+00-0.101D+01
 Coeff-Com:  0.401D+00 0.880D+00
 Coeff:      0.464D-07 0.128D-05 0.136D-05-0.143D-05-0.758D-05 0.144D-04
 Coeff:      0.252D-04-0.132D-03-0.253D-03 0.405D-03 0.244D-02 0.200D-02
 Coeff:     -0.709D-02-0.321D-01-0.188D-01 0.229D+00 0.554D+00-0.101D+01
 Coeff:      0.401D+00 0.880D+00
 Gap=     0.257 Goal=   None    Shift=    0.000
 RMSDP=1.85D-08 MaxDP=1.27D-06 DE= 2.16D-10 OVMax= 1.02D-07

 Cycle  24  Pass 1  IDiag  1:
 RMSU=  1.10D-08    CP:  1.00D+00  2.77D+00  1.64D+00
 E= -3019.49424791033     Delta-E=       -0.000000000051 Rises=F Damp=F
 DIIS: error= 1.02D-07 at cycle  24 NSaved=  20.
 NSaved=20 IEnMin=17 EnMin= -3019.49424791053     IErMin=15 ErrMin= 2.50D-08
 ErrMax= 1.02D-07  0.00D+00 EMaxC= 1.00D-01 BMatC= 5.89D-12 BMatP= 8.86D-13
 IDIUse=1 WtCom= 1.00D+00 WtEn= 0.00D+00
 Coeff-Com:  0.114D-05 0.160D-05-0.274D-06-0.556D-05 0.112D-04 0.128D-04
 Coeff-Com: -0.131D-03-0.206D-03 0.446D-03 0.233D-02 0.177D-02-0.717D-02
 Coeff-Com: -0.317D-01-0.185D-01 0.229D+00 0.556D+00-0.880D+00 0.253D+00
 Coeff-Com:  0.556D+00 0.339D+00
 Coeff:      0.114D-05 0.160D-05-0.274D-06-0.556D-05 0.112D-04 0.128D-04
 Coeff:     -0.131D-03-0.206D-03 0.446D-03 0.233D-02 0.177D-02-0.717D-02
 Coeff:     -0.317D-01-0.185D-01 0.229D+00 0.556D+00-0.880D+00 0.253D+00
 Coeff:      0.556D+00 0.339D+00
 Gap=     0.257 Goal=   None    Shift=    0.000
 RMSDP=6.46D-09 MaxDP=3.97D-07 DE=-5.09D-11 OVMax= 1.41D-08

 Error on total polarization charges =  0.04849
 SCF Done:  E(RwB97XD) =  -3019.49424791     A.U. after   24 cycles
            NFock= 24  Conv=0.65D-08     -V/T= 2.0308
 KE= 2.929287206971D+03 PE=-1.931202306739D+04 EE= 7.248982742918D+03
 SMD-CDS (non-electrostatic) energy       (kcal/mol) =      -4.49
 (included in total energy above)
 Leave Link  502 at Wed Nov 29 18:00:14 2023, MaxMem=  2147483648 cpu:     73506.7
 (Enter /cluster/apps/gaussian/g09/l601.exe)
 Copying SCF densities to generalized density rwf, IOpCl= 0 IROHF=0.

 **********************************************************************

            Population analysis using the SCF density.

 **********************************************************************

 Orbital symmetries:
       Occupied  (A) (A) (A) (A) (A) (A) (A) (A) (A) (A) (A) (A)
                 (A) (A) (A) (A) (A) (A) (A) (A) (A) (A) (A) (A)
                 (A) (A) (A) (A) (A) (A) (A) (A) (A) (A) (A) (A)
                 (A) (A) (A) (A) (A) (A) (A) (A) (A) (A) (A) (A)
                 (A) (A) (A) (A) (A) (A) (A) (A) (A) (A) (A) (A)
                 (A) (A) (A) (A) (A) (A) (A) (A) (A) (A) (A) (A)
                 (A) (A) (A) (A) (A) (A) (A) (A) (A) (A) (A) (A)
                 (A) (A) (A) (A) (A) (A) (A) (A) (A) (A) (A) (A)
                 (A) (A) (A) (A) (A) (A) (A) (A) (A) (A) (A) (A)
                 (A) (A) (A) (A) (A) (A) (A) (A) (A) (A) (A) (A)
                 (A) (A) (A) (A) (A) (A) (A) (A) (A) (A) (A) (A)
                 (A) (A) (A) (A) (A) (A) (A) (A) (A) (A) (A) (A)
                 (A) (A) (A) (A) (A) (A) (A) (A) (A) (A) (A) (A)
                 (A) (A) (A) (A) (A) (A)
       Virtual   (A) (A) (A) (A) (A) (A) (A) (A) (A) (A) (A) (A)
                 (A) (A) (A) (A) (A) (A) (A) (A) (A) (A) (A) (A)
                 (A) (A) (A) (A) (A) (A) (A) (A) (A) (A) (A) (A)
                 (A) (A) (A) (A) (A) (A) (A) (A) (A) (A) (A) (A)
                 (A) (A) (A) (A) (A) (A) (A) (A) (A) (A) (A) (A)
                 (A) (A) (A) (A) (A) (A) (A) (A) (A) (A) (A) (A)
                 (A) (A) (A) (A) (A) (A) (A) (A) (A) (A) (A) (A)
                 (A) (A) (A) (A) (A) (A) (A) (A) (A) (A) (A) (A)
                 (A) (A) (A) (A) (A) (A) (A) (A) (A) (A) (A) (A)
                 (A) (A) (A) (A) (A) (A) (A) (A) (A) (A) (A) (A)
                 (A) (A) (A) (A) (A) (A) (A) (A) (A) (A) (A) (A)
                 (A) (A) (A) (A) (A) (A) (A) (A) (A) (A) (A) (A)
                 (A) (A) (A) (A) (A) (A) (A) (A) (A) (A) (A) (A)
                 (A) (A) (A) (A) (A) (A) (A) (A) (A) (A) (A) (A)
                 (A) (A) (A) (A) (A) (A) (A) (A) (A) (A) (A) (A)
                 (A) (A) (A) (A) (A) (A) (A) (A) (A) (A) (A) (A)
                 (A) (A) (A) (A) (A) (A) (A) (A) (A) (A) (A) (A)
                 (A) (A) (A) (A) (A) (A) (A) (A) (A) (A) (A) (A)
                 (A) (A) (A) (A) (A) (A) (A) (A) (A) (A) (A) (A)
                 (A) (A) (A) (A) (A) (A) (A) (A) (A) (A) (A) (A)
                 (A) (A) (A) (A) (A) (A) (A) (A) (A) (A) (A) (A)
                 (A) (A) (A) (A) (A) (A) (A) (A) (A) (A) (A) (A)
                 (A) (A) (A) (A) (A) (A) (A) (A) (A) (A) (A) (A)
                 (A) (A) (A) (A) (A) (A) (A) (A) (A) (A) (A) (A)
                 (A) (A) (A) (A) (A) (A) (A) (A) (A) (A) (A) (A)
                 (A) (A) (A) (A) (A) (A) (A) (A) (A) (A) (A) (A)
                 (A) (A) (A) (A) (A) (A) (A) (A) (A) (A) (A) (A)
                 (A) (A) (A) (A) (A) (A) (A) (A) (A) (A) (A) (A)
                 (A) (A) (A) (A) (A) (A) (A) (A) (A) (A) (A) (A)
                 (A) (A) (A) (A) (A) (A) (A) (A) (A) (A) (A) (A)
                 (A) (A) (A) (A) (A) (A) (A) (A) (A) (A) (A) (A)
                 (A) (A) (A) (A) (A) (A) (A) (A) (A) (A) (A) (A)
                 (A) (A) (A) (A) (A) (A) (A) (A) (A) (A) (A) (A)
                 (A) (A) (A) (A) (A) (A) (A) (A) (A) (A) (A) (A)
                 (A) (A) (A) (A) (A) (A) (A) (A) (A) (A) (A) (A)
                 (A) (A) (A) (A) (A) (A) (A) (A) (A) (A) (A) (A)
                 (A) (A) (A) (A) (A) (A) (A) (A) (A) (A) (A) (A)
                 (A) (A) (A) (A) (A) (A) (A) (A) (A) (A) (A) (A)
                 (A) (A) (A) (A) (A) (A) (A) (A) (A) (A) (A) (A)
                 (A) (A) (A) (A) (A) (A) (A) (A) (A) (A) (A) (A)
                 (A) (A) (A) (A) (A) (A) (A) (A) (A) (A) (A) (A)
                 (A) (A) (A) (A) (A) (A) (A) (A) (A) (A) (A) (A)
                 (A) (A) (A) (A) (A) (A) (A) (A) (A) (A) (A) (A)
                 (A) (A) (A) (A) (A) (A) (A) (A) (A) (A) (A) (A)
                 (A) (A) (A) (A) (A) (A) (A) (A) (A) (A) (A) (A)
                 (A) (A) (A) (A) (A) (A) (A) (A) (A) (A) (A) (A)
                 (A) (A) (A) (A) (A) (A) (A) (A) (A) (A) (A) (A)
                 (A) (A) (A) (A) (A) (A) (A) (A) (A) (A) (A) (A)
                 (A) (A) (A) (A) (A) (A) (A) (A) (A) (A) (A) (A)
                 (A) (A) (A) (A) (A) (A) (A) (A) (A) (A) (A) (A)
                 (A) (A) (A) (A) (A) (A) (A) (A) (A) (A) (A) (A)
                 (A) (A) (A) (A) (A) (A) (A) (A) (A) (A) (A) (A)
                 (A) (A) (A) (A) (A) (A) (A) (A) (A) (A) (A) (A)
                 (A) (A) (A) (A) (A) (A) (A) (A) (A) (A) (A) (A)
                 (A) (A) (A) (A) (A) (A) (A) (A) (A) (A) (A) (A)
                 (A) (A) (A) (A) (A) (A) (A) (A) (A) (A) (A) (A)
                 (A) (A) (A) (A) (A) (A) (A) (A) (A) (A) (A) (A)
                 (A) (A) (A) (A) (A) (A) (A) (A) (A) (A) (A) (A)
                 (A) (A) (A) (A) (A) (A) (A) (A) (A) (A) (A) (A)
                 (A) (A) (A) (A) (A) (A) (A) (A) (A) (A) (A) (A)
                 (A) (A) (A) (A) (A) (A) (A) (A) (A) (A) (A) (A)
                 (A) (A) (A) (A) (A) (A) (A) (A) (A) (A) (A) (A)
                 (A) (A) (A) (A) (A) (A) (A) (A) (A) (A) (A) (A)
                 (A) (A) (A) (A) (A) (A) (A) (A) (A) (A) (A) (A)
                 (A) (A) (A) (A) (A) (A) (A) (A) (A) (A) (A) (A)
                 (A) (A) (A) (A) (A) (A) (A) (A) (A) (A) (A) (A)
                 (A) (A) (A) (A) (A) (A) (A) (A) (A) (A) (A) (A)
                 (A) (A) (A) (A) (A) (A) (A) (A) (A) (A) (A) (A)
                 (A) (A) (A) (A) (A) (A) (A) (A) (A) (A) (A) (A)
                 (A) (A) (A) (A) (A) (A) (A) (A) (A) (A) (A) (A)
                 (A) (A) (A) (A) (A) (A) (A) (A) (A) (A) (A) (A)
                 (A) (A) (A) (A) (A) (A) (A) (A) (A) (A) (A) (A)
                 (A) (A) (A) (A) (A) (A) (A) (A) (A) (A) (A) (A)
                 (A) (A) (A) (A) (A) (A) (A) (A) (A) (A) (A) (A)
                 (A) (A) (A) (A) (A) (A) (A) (A) (A) (A) (A) (A)
                 (A) (A) (A) (A) (A) (A) (A) (A) (A) (A) (A) (A)
                 (A) (A) (A) (A) (A) (A) (A) (A) (A) (A) (A) (A)
                 (A) (A) (A) (A) (A) (A) (A) (A) (A) (A) (A) (A)
                 (A) (A) (A) (A) (A) (A) (A) (A) (A) (A) (A) (A)
                 (A) (A) (A) (A) (A) (A) (A) (A) (A) (A) (A) (A)
                 (A) (A) (A) (A) (A) (A) (A) (A) (A) (A) (A) (A)
                 (A) (A) (A) (A) (A) (A) (A) (A) (A) (A) (A) (A)
                 (A) (A) (A) (A) (A) (A) (A) (A) (A) (A) (A) (A)
                 (A) (A) (A) (A) (A) (A) (A) (A) (A) (A) (A) (A)
                 (A) (A) (A) (A) (A) (A) (A) (A) (A) (A) (A) (A)
                 (A) (A) (A) (A) (A) (A) (A) (A) (A) (A) (A) (A)
                 (A) (A) (A) (A) (A) (A) (A) (A) (A) (A) (A) (A)
                 (A) (A) (A) (A) (A) (A) (A) (A) (A) (A) (A) (A)
                 (A) (A) (A) (A) (A) (A) (A) (A) (A) (A) (A) (A)
                 (A) (A) (A) (A) (A) (A) (A) (A) (A) (A) (A) (A)
                 (A) (A) (A) (A) (A) (A) (A) (A) (A) (A) (A) (A)
                 (A) (A) (A) (A) (A) (A) (A) (A) (A) (A) (A) (A)
                 (A) (A) (A) (A) (A) (A) (A) (A) (A) (A) (A) (A)
                 (A) (A) (A) (A) (A) (A) (A) (A) (A) (A) (A) (A)
                 (A) (A) (A) (A) (A) (A) (A) (A) (A) (A) (A) (A)
                 (A) (A) (A) (A) (A) (A) (A) (A) (A) (A) (A) (A)
                 (A) (A) (A) (A) (A) (A) (A) (A) (A) (A) (A) (A)
                 (A) (A) (A) (A) (A) (A) (A) (A) (A) (A) (A) (A)
                 (A) (A) (A) (A) (A) (A) (A) (A) (A) (A) (A) (A)
                 (A) (A) (A) (A) (A) (A) (A) (A) (A) (A) (A) (A)
                 (A) (A) (A) (A) (A) (A) (A) (A) (A) (A) (A) (A)
                 (A) (A) (A) (A) (A) (A) (A) (A) (A) (A) (A) (A)
                 (A) (A) (A) (A) (A) (A) (A) (A) (A) (A) (A) (A)
                 (A) (A) (A) (A) (A) (A) (A) (A) (A) (A) (A) (A)
                 (A) (A) (A) (A) (A)
 The electronic state is 1-A.
 Alpha  occ. eigenvalues -- -101.70571 -89.23311 -77.22329 -24.84899 -24.84870
 Alpha  occ. eigenvalues --  -24.84547 -24.84280 -19.28038 -19.25549 -19.25475
 Alpha  occ. eigenvalues --  -14.49251 -10.39867 -10.39784 -10.39702 -10.39584
 Alpha  occ. eigenvalues --  -10.37306 -10.35783 -10.34731 -10.34509 -10.32667
 Alpha  occ. eigenvalues --  -10.32465 -10.30775 -10.30717 -10.30664 -10.30635
 Alpha  occ. eigenvalues --  -10.29339 -10.29229 -10.29121 -10.26923 -10.26897
 Alpha  occ. eigenvalues --  -10.26872 -10.26861 -10.26838 -10.26813 -10.26708
 Alpha  occ. eigenvalues --  -10.26455 -10.26322  -9.59120  -8.23457  -7.33807
 Alpha  occ. eigenvalues --   -7.32884  -7.32847  -6.66754  -6.18350  -6.18176
 Alpha  occ. eigenvalues --   -6.18151  -4.81428  -4.81414  -4.81126  -3.53485
 Alpha  occ. eigenvalues --   -2.22343  -2.21297  -2.19510  -1.37592  -1.36692
 Alpha  occ. eigenvalues --   -1.35767  -1.35265  -1.22533  -1.17620  -1.11695
 Alpha  occ. eigenvalues --   -1.05873  -0.98288  -0.97748  -0.96396  -0.92936
 Alpha  occ. eigenvalues --   -0.90427  -0.90341  -0.90081  -0.87217  -0.85460
 Alpha  occ. eigenvalues --   -0.84530  -0.82343  -0.79578  -0.78823  -0.78177
 Alpha  occ. eigenvalues --   -0.78056  -0.77610  -0.77412  -0.76431  -0.76372
 Alpha  occ. eigenvalues --   -0.75800  -0.73576  -0.71664  -0.70767  -0.69629
 Alpha  occ. eigenvalues --   -0.67050  -0.66848  -0.66319  -0.64014  -0.63850
 Alpha  occ. eigenvalues --   -0.63777  -0.63592  -0.62128  -0.61808  -0.60632
 Alpha  occ. eigenvalues --   -0.60343  -0.59621  -0.59102  -0.58747  -0.57440
 Alpha  occ. eigenvalues --   -0.57121  -0.56725  -0.56281  -0.55768  -0.55165
 Alpha  occ. eigenvalues --   -0.55077  -0.54896  -0.54065  -0.53905  -0.53631
 Alpha  occ. eigenvalues --   -0.53552  -0.52977  -0.52862  -0.52107  -0.51779
 Alpha  occ. eigenvalues --   -0.51281  -0.50963  -0.50800  -0.50608  -0.49955
 Alpha  occ. eigenvalues --   -0.49362  -0.48998  -0.48667  -0.47640  -0.47433
 Alpha  occ. eigenvalues --   -0.46890  -0.46815  -0.46376  -0.45683  -0.45521
 Alpha  occ. eigenvalues --   -0.45162  -0.45127  -0.44526  -0.44293  -0.43868
 Alpha  occ. eigenvalues --   -0.43774  -0.43168  -0.42677  -0.42625  -0.42239
 Alpha  occ. eigenvalues --   -0.42180  -0.42082  -0.41841  -0.41273  -0.40942
 Alpha  occ. eigenvalues --   -0.40733  -0.40371  -0.39564  -0.38917  -0.38707
 Alpha  occ. eigenvalues --   -0.36896  -0.36741  -0.36338  -0.36322  -0.34644
 Alpha  occ. eigenvalues --   -0.32439  -0.32289  -0.31986  -0.31571  -0.31129
 Alpha  occ. eigenvalues --   -0.28469  -0.24632
 Alpha virt. eigenvalues --    0.01068   0.02603   0.04036   0.06516   0.07354
 Alpha virt. eigenvalues --    0.08320   0.08515   0.09082   0.09914   0.11063
 Alpha virt. eigenvalues --    0.11864   0.12470   0.12778   0.13163   0.13723
 Alpha virt. eigenvalues --    0.14296   0.14485   0.14694   0.14791   0.14952
 Alpha virt. eigenvalues --    0.15126   0.15985   0.16086   0.16181   0.16459
 Alpha virt. eigenvalues --    0.16643   0.16883   0.17150   0.17943   0.18109
 Alpha virt. eigenvalues --    0.18597   0.18975   0.19067   0.19278   0.19324
 Alpha virt. eigenvalues --    0.19712   0.19914   0.20268   0.20397   0.21022
 Alpha virt. eigenvalues --    0.21212   0.21648   0.21705   0.21904   0.22063
 Alpha virt. eigenvalues --    0.22664   0.23029   0.23078   0.23455   0.23728
 Alpha virt. eigenvalues --    0.23940   0.24455   0.24729   0.25264   0.25613
 Alpha virt. eigenvalues --    0.25833   0.26193   0.26257   0.26507   0.26662
 Alpha virt. eigenvalues --    0.27114   0.27203   0.27362   0.27474   0.27917
 Alpha virt. eigenvalues --    0.28299   0.28636   0.28819   0.29199   0.29383
 Alpha virt. eigenvalues --    0.29596   0.30101   0.30324   0.30701   0.31027
 Alpha virt. eigenvalues --    0.31239   0.31741   0.32094   0.32327   0.32413
 Alpha virt. eigenvalues --    0.32563   0.33007   0.33116   0.33594   0.33688
 Alpha virt. eigenvalues --    0.33926   0.34247   0.34769   0.35319   0.35645
 Alpha virt. eigenvalues --    0.35774   0.36107   0.36302   0.36715   0.36884
 Alpha virt. eigenvalues --    0.37353   0.37489   0.37704   0.38117   0.38242
 Alpha virt. eigenvalues --    0.38667   0.38771   0.38971   0.39687   0.40000
 Alpha virt. eigenvalues --    0.40290   0.40382   0.40665   0.41178   0.41784
 Alpha virt. eigenvalues --    0.41860   0.42076   0.42191   0.42516   0.42998
 Alpha virt. eigenvalues --    0.43103   0.43359   0.43754   0.44150   0.44371
 Alpha virt. eigenvalues --    0.44697   0.44920   0.45298   0.45714   0.45817
 Alpha virt. eigenvalues --    0.46480   0.46614   0.46700   0.46848   0.47040
 Alpha virt. eigenvalues --    0.47323   0.47645   0.47761   0.47923   0.48559
 Alpha virt. eigenvalues --    0.48811   0.49009   0.49231   0.49549   0.49904
 Alpha virt. eigenvalues --    0.50104   0.50371   0.51098   0.51155   0.51262
 Alpha virt. eigenvalues --    0.51401   0.51768   0.52063   0.52128   0.52361
 Alpha virt. eigenvalues --    0.52434   0.52711   0.52801   0.52913   0.53233
 Alpha virt. eigenvalues --    0.53401   0.53493   0.53753   0.53881   0.54044
 Alpha virt. eigenvalues --    0.54420   0.54491   0.54742   0.54994   0.55130
 Alpha virt. eigenvalues --    0.55340   0.55606   0.55949   0.56124   0.56401
 Alpha virt. eigenvalues --    0.56545   0.56702   0.56855   0.57071   0.57231
 Alpha virt. eigenvalues --    0.57440   0.57591   0.58001   0.58280   0.58453
 Alpha virt. eigenvalues --    0.58928   0.59261   0.59607   0.59913   0.60229
 Alpha virt. eigenvalues --    0.60604   0.60720   0.61052   0.61179   0.61615
 Alpha virt. eigenvalues --    0.62073   0.62341   0.62649   0.62859   0.63345
 Alpha virt. eigenvalues --    0.63822   0.63989   0.64400   0.64815   0.64963
 Alpha virt. eigenvalues --    0.65322   0.65728   0.66184   0.66346   0.66938
 Alpha virt. eigenvalues --    0.67542   0.67756   0.67918   0.68080   0.68599
 Alpha virt. eigenvalues --    0.68940   0.69049   0.69443   0.69563   0.69865
 Alpha virt. eigenvalues --    0.70099   0.70487   0.70586   0.71167   0.71486
 Alpha virt. eigenvalues --    0.71711   0.71986   0.72409   0.72824   0.73504
 Alpha virt. eigenvalues --    0.73983   0.74021   0.74771   0.74978   0.75245
 Alpha virt. eigenvalues --    0.75511   0.75750   0.76066   0.76465   0.77004
 Alpha virt. eigenvalues --    0.77628   0.78057   0.78276   0.78469   0.78814
 Alpha virt. eigenvalues --    0.78892   0.79162   0.79227   0.79752   0.80326
 Alpha virt. eigenvalues --    0.81190   0.81428   0.81759   0.81932   0.82519
 Alpha virt. eigenvalues --    0.82835   0.83091   0.83512   0.83905   0.84357
 Alpha virt. eigenvalues --    0.84891   0.85418   0.85818   0.86156   0.86437
 Alpha virt. eigenvalues --    0.87231   0.87539   0.87675   0.88099   0.88338
 Alpha virt. eigenvalues --    0.88842   0.89408   0.89586   0.90078   0.90880
 Alpha virt. eigenvalues --    0.90982   0.91315   0.91753   0.91861   0.92236
 Alpha virt. eigenvalues --    0.93072   0.93473   0.93606   0.94213   0.94335
 Alpha virt. eigenvalues --    0.94587   0.95097   0.95619   0.96038   0.96211
 Alpha virt. eigenvalues --    0.96469   0.96883   0.97588   0.97712   0.98117
 Alpha virt. eigenvalues --    0.98315   0.98400   0.98754   0.99168   1.00389
 Alpha virt. eigenvalues --    1.00656   1.01205   1.01334   1.01572   1.02327
 Alpha virt. eigenvalues --    1.02792   1.03154   1.03585   1.03659   1.04140
 Alpha virt. eigenvalues --    1.04717   1.05137   1.05211   1.05374   1.05701
 Alpha virt. eigenvalues --    1.06815   1.07012   1.07339   1.07729   1.08017
 Alpha virt. eigenvalues --    1.08367   1.08801   1.09131   1.09702   1.10013
 Alpha virt. eigenvalues --    1.10219   1.10745   1.11346   1.11986   1.12393
 Alpha virt. eigenvalues --    1.13465   1.13525   1.13740   1.14433   1.15153
 Alpha virt. eigenvalues --    1.15485   1.15694   1.15952   1.16200   1.16651
 Alpha virt. eigenvalues --    1.17206   1.17829   1.18243   1.18980   1.19102
 Alpha virt. eigenvalues --    1.19421   1.19599   1.20026   1.20484   1.20606
 Alpha virt. eigenvalues --    1.21171   1.21498   1.22048   1.22270   1.22689
 Alpha virt. eigenvalues --    1.22894   1.23225   1.23599   1.24043   1.24646
 Alpha virt. eigenvalues --    1.24789   1.25625   1.25862   1.25936   1.26169
 Alpha virt. eigenvalues --    1.26717   1.27422   1.27883   1.28665   1.29021
 Alpha virt. eigenvalues --    1.30176   1.30546   1.30598   1.31231   1.31943
 Alpha virt. eigenvalues --    1.32104   1.32583   1.33297   1.33650   1.34148
 Alpha virt. eigenvalues --    1.34481   1.35064   1.35516   1.35933   1.36792
 Alpha virt. eigenvalues --    1.37189   1.37559   1.38400   1.39221   1.39624
 Alpha virt. eigenvalues --    1.40180   1.40462   1.40791   1.41549   1.42060
 Alpha virt. eigenvalues --    1.42744   1.43080   1.43357   1.44020   1.44730
 Alpha virt. eigenvalues --    1.45071   1.45615   1.45891   1.46192   1.46751
 Alpha virt. eigenvalues --    1.47562   1.48024   1.48324   1.49852   1.50103
 Alpha virt. eigenvalues --    1.50609   1.50922   1.51443   1.52504   1.52987
 Alpha virt. eigenvalues --    1.53251   1.53525   1.55289   1.56337   1.56987
 Alpha virt. eigenvalues --    1.57156   1.57530   1.57708   1.58013   1.58302
 Alpha virt. eigenvalues --    1.58951   1.59118   1.60236   1.61060   1.61552
 Alpha virt. eigenvalues --    1.62212   1.62410   1.63378   1.63543   1.63821
 Alpha virt. eigenvalues --    1.64576   1.65101   1.65383   1.65648   1.65885
 Alpha virt. eigenvalues --    1.66402   1.66731   1.66768   1.67473   1.67539
 Alpha virt. eigenvalues --    1.67890   1.68167   1.68530   1.68901   1.69065
 Alpha virt. eigenvalues --    1.69121   1.69664   1.70535   1.70651   1.70925
 Alpha virt. eigenvalues --    1.71355   1.71633   1.71899   1.72425   1.72573
 Alpha virt. eigenvalues --    1.73099   1.73251   1.73596   1.74214   1.74602
 Alpha virt. eigenvalues --    1.75013   1.75521   1.75623   1.75839   1.76146
 Alpha virt. eigenvalues --    1.76724   1.76951   1.77673   1.77919   1.77991
 Alpha virt. eigenvalues --    1.78660   1.78892   1.79105   1.79386   1.80247
 Alpha virt. eigenvalues --    1.80632   1.80819   1.81209   1.81435   1.81837
 Alpha virt. eigenvalues --    1.81966   1.82615   1.82835   1.83326   1.83331
 Alpha virt. eigenvalues --    1.83763   1.84383   1.84703   1.84884   1.85428
 Alpha virt. eigenvalues --    1.85686   1.86084   1.86461   1.86972   1.87511
 Alpha virt. eigenvalues --    1.87932   1.87984   1.88859   1.88987   1.89302
 Alpha virt. eigenvalues --    1.89956   1.90349   1.90769   1.91287   1.91578
 Alpha virt. eigenvalues --    1.92137   1.92382   1.92894   1.93633   1.94301
[...]
 Alpha virt. eigenvalues --    2.06257   2.06747   2.07135   2.07850   2.07944
 Alpha virt. eigenvalues --    2.08504   2.09081   2.09832   2.09958   2.10278
 Alpha virt. eigenvalues --    2.10597   2.10773   2.11302   2.11470   2.11905
 Alpha virt. eigenvalues --    2.12648   2.13239   2.13904   2.14163   2.14206
 Alpha virt. eigenvalues --    2.14640   2.15673   2.15766   2.16255   2.16403
 Alpha virt. eigenvalues --    2.16584   2.16881   2.17223   2.17617   2.18341
 Alpha virt. eigenvalues --    2.19211   2.19661   2.19981   2.20118   2.20958
 Alpha virt. eigenvalues --    2.21578   2.22372   2.22966   2.23247   2.23685
 Alpha virt. eigenvalues --    2.24149   2.24697   2.25342   2.25625   2.26505
 Alpha virt. eigenvalues --    2.26836   2.27285   2.27734   2.28122   2.28266
 Alpha virt. eigenvalues --    2.28827   2.29133   2.29783   2.30092   2.30881
 Alpha virt. eigenvalues --    2.31491   2.31667   2.32145   2.32195   2.32543
 Alpha virt. eigenvalues --    2.33465   2.33598   2.34124   2.34226   2.35202
 Alpha virt. eigenvalues --    2.35706   2.35817   2.36010   2.36419   2.37175
 Alpha virt. eigenvalues --    2.37587   2.38042   2.38379   2.39087   2.39498
 Alpha virt. eigenvalues --    2.39884   2.40240   2.40507   2.40749   2.41100
 Alpha virt. eigenvalues --    2.41729   2.42517   2.42751   2.43267   2.43544
 Alpha virt. eigenvalues --    2.44446   2.44803   2.44969   2.45185   2.45801
 Alpha virt. eigenvalues --    2.46393   2.46554   2.46751   2.47182   2.47510
 Alpha virt. eigenvalues --    2.47732   2.48293   2.48473   2.49071   2.49807
 Alpha virt. eigenvalues --    2.49883   2.50447   2.51123   2.51436   2.51726
 Alpha virt. eigenvalues --    2.52197   2.52267   2.52706   2.53165   2.53247
 Alpha virt. eigenvalues --    2.53661   2.54007   2.54421   2.54725   2.55036
 Alpha virt. eigenvalues --    2.55372   2.55926   2.56381   2.56824   2.57340
 Alpha virt. eigenvalues --    2.57402   2.57902   2.58377   2.59013   2.59672
 Alpha virt. eigenvalues --    2.59836   2.60518   2.60583   2.61215   2.61375
 Alpha virt. eigenvalues --    2.61511   2.61848   2.62130   2.62445   2.63202
 Alpha virt. eigenvalues --    2.63624   2.63818   2.63950   2.64158   2.64676
 Alpha virt. eigenvalues --    2.65114   2.65367   2.65758   2.66472   2.66533
 Alpha virt. eigenvalues --    2.67350   2.67661   2.68024   2.68111   2.68337
 Alpha virt. eigenvalues --    2.68615   2.69155   2.69754   2.70038   2.70408
 Alpha virt. eigenvalues --    2.70473   2.71376   2.71511   2.71603   2.72201
 Alpha virt. eigenvalues --    2.72383   2.72676   2.73296   2.73766   2.74099
 Alpha virt. eigenvalues --    2.74456   2.74690   2.75431   2.75455   2.75680
 Alpha virt. eigenvalues --    2.75905   2.76690   2.76933   2.77147   2.77506
 Alpha virt. eigenvalues --    2.77953   2.78421   2.78525   2.79104   2.79428
 Alpha virt. eigenvalues --    2.79942   2.80250   2.80400   2.80657   2.81335
 Alpha virt. eigenvalues --    2.81801   2.82125   2.83014   2.83166   2.83363
 Alpha virt. eigenvalues --    2.83816   2.84931   2.85054   2.85789   2.86339
 Alpha virt. eigenvalues --    2.86652   2.87355   2.87976   2.88525   2.88738
 Alpha virt. eigenvalues --    2.89579   2.89758   2.90103   2.90474   2.90798
 Alpha virt. eigenvalues --    2.91391   2.91948   2.92721   2.92804   2.93727
 Alpha virt. eigenvalues --    2.93979   2.94199   2.94336   2.94892   2.95474
 Alpha virt. eigenvalues --    2.95562   2.95866   2.96688   2.97002   2.97090
 Alpha virt. eigenvalues --    2.97390   2.97761   2.97970   2.98776   2.99528
 Alpha virt. eigenvalues --    2.99628   3.00332   3.00554   3.01240   3.01616
 Alpha virt. eigenvalues --    3.01990   3.02513   3.02863   3.03199   3.03617
 Alpha virt. eigenvalues --    3.04279   3.04430   3.04797   3.05021   3.05298
 Alpha virt. eigenvalues --    3.05681   3.06984   3.07231   3.07826   3.08485
 Alpha virt. eigenvalues --    3.09362   3.09539   3.10549   3.11032   3.11633
 Alpha virt. eigenvalues --    3.12487   3.12906   3.13261   3.13573   3.14729
 Alpha virt. eigenvalues --    3.15114   3.16065   3.16602   3.16956   3.17414
 Alpha virt. eigenvalues --    3.17865   3.18455   3.18995   3.19865   3.20389
 Alpha virt. eigenvalues --    3.20697   3.20903   3.21439   3.22315   3.22446
 Alpha virt. eigenvalues --    3.22816   3.23552   3.24133   3.24515   3.24670
 Alpha virt. eigenvalues --    3.24958   3.25858   3.26033   3.26310   3.26545
 Alpha virt. eigenvalues --    3.27411   3.27664   3.28315   3.28588   3.29094
 Alpha virt. eigenvalues --    3.29260   3.29656   3.30112   3.30436   3.30907
 Alpha virt. eigenvalues --    3.31492   3.31923   3.32271   3.32394   3.32747
 Alpha virt. eigenvalues --    3.33076   3.33269   3.33463   3.34170   3.34586
 Alpha virt. eigenvalues --    3.35095   3.35520   3.36391   3.36827   3.37120
 Alpha virt. eigenvalues --    3.37300   3.37720   3.38344   3.38724   3.39203
 Alpha virt. eigenvalues --    3.39432   3.39458   3.40021   3.40686   3.40839
 Alpha virt. eigenvalues --    3.41061   3.41358   3.41567   3.41992   3.42365
 Alpha virt. eigenvalues --    3.43433   3.44179   3.44404   3.44798   3.45195
 Alpha virt. eigenvalues --    3.45365   3.45473   3.45986   3.46561   3.47098
 Alpha virt. eigenvalues --    3.47492   3.47958   3.48294   3.48832   3.49197
 Alpha virt. eigenvalues --    3.49313   3.49785   3.50078   3.50410   3.50671
 Alpha virt. eigenvalues --    3.50843   3.50958   3.51697   3.51962   3.52299
 Alpha virt. eigenvalues --    3.52906   3.53455   3.53572   3.53669   3.53903
 Alpha virt. eigenvalues --    3.54472   3.54630   3.54830   3.55111   3.55656
 Alpha virt. eigenvalues --    3.55827   3.56361   3.57050   3.57218   3.57842
 Alpha virt. eigenvalues --    3.58025   3.58133   3.58652   3.58965   3.59494
 Alpha virt. eigenvalues --    3.59897   3.60381   3.61159   3.61842   3.62307
 Alpha virt. eigenvalues --    3.62541   3.62943   3.63190   3.64089   3.64694
 Alpha virt. eigenvalues --    3.64945   3.65119   3.65497   3.65891   3.66022
 Alpha virt. eigenvalues --    3.66897   3.67087   3.67804   3.68381   3.68462
 Alpha virt. eigenvalues --    3.69600   3.69784   3.70021   3.70900   3.71479
 Alpha virt. eigenvalues --    3.72041   3.72873   3.73091   3.73902   3.74503
 Alpha virt. eigenvalues --    3.75352   3.75645   3.76442   3.76855   3.77646
 Alpha virt. eigenvalues --    3.78109   3.78681   3.79734   3.80032   3.80404
 Alpha virt. eigenvalues --    3.80882   3.81307   3.82175   3.82368   3.82720
 Alpha virt. eigenvalues --    3.83520   3.83926   3.84404   3.86154   3.86388
 Alpha virt. eigenvalues --    3.87243   3.87402   3.87811   3.88274   3.89106
 Alpha virt. eigenvalues --    3.89613   3.89880   3.89922   3.90718   3.91317
 Alpha virt. eigenvalues --    3.92487   3.92667   3.93208   3.95778   3.96040
 Alpha virt. eigenvalues --    3.96680   3.97566   4.00044   4.03145   4.04353
 Alpha virt. eigenvalues --    4.05399   4.06693   4.08436   4.08570   4.09902
 Alpha virt. eigenvalues --    4.10534   4.10737   4.11075   4.12087   4.14051
 Alpha virt. eigenvalues --    4.14242   4.14583   4.15527   4.16360   4.16825
 Alpha virt. eigenvalues --    4.17686   4.18368   4.19626   4.19768   4.20321
 Alpha virt. eigenvalues --    4.20694   4.21083   4.21533   4.21654   4.21959
 Alpha virt. eigenvalues --    4.22277   4.23028   4.23339   4.23864   4.24029
 Alpha virt. eigenvalues --    4.24756   4.24815   4.25847   4.26354   4.26534
 Alpha virt. eigenvalues --    4.26757   4.27081   4.27551   4.27757   4.28391
 Alpha virt. eigenvalues --    4.29067   4.30052   4.30093   4.30264   4.31433
 Alpha virt. eigenvalues --    4.33076   4.34030   4.34449   4.34851   4.35557
 Alpha virt. eigenvalues --    4.35802   4.36463   4.37846   4.38598   4.39202
 Alpha virt. eigenvalues --    4.40025   4.40521   4.40893   4.41170   4.42973
 Alpha virt. eigenvalues --    4.43887   4.45773   4.46907   4.47624   4.47919
 Alpha virt. eigenvalues --    4.48262   4.48684   4.49118   4.50446   4.51760
 Alpha virt. eigenvalues --    4.51842   4.52776   4.53646   4.54681   4.55201
 Alpha virt. eigenvalues --    4.55727   4.56793   4.56891   4.57528   4.58195
 Alpha virt. eigenvalues --    4.58734   4.59312   4.59774   4.60272   4.62726
 Alpha virt. eigenvalues --    4.63353   4.63593   4.65905   4.66618   4.66784
 Alpha virt. eigenvalues --    4.67600   4.68200   4.69110   4.69325   4.70163
 Alpha virt. eigenvalues --    4.70686   4.71159   4.71550   4.72013   4.72835
 Alpha virt. eigenvalues --    4.73961   4.75656   4.77306   4.80555   4.81060
 Alpha virt. eigenvalues --    4.81347   4.83785   4.84542   4.86131   4.86542
 Alpha virt. eigenvalues --    4.89693   4.91999   4.92824   4.96262   4.99301
 Alpha virt. eigenvalues --    5.00444   5.02921   5.04344   5.05746   5.06822
 Alpha virt. eigenvalues --    5.08628   5.09225   5.09922   5.10415   5.10725
 Alpha virt. eigenvalues --    5.13115   5.13871   5.14411   5.15242   5.16509
 Alpha virt. eigenvalues --    5.17251   5.19279   5.22499   5.23328   5.23664
 Alpha virt. eigenvalues --    5.24342   5.25564   5.28215   5.29543   5.29799
 Alpha virt. eigenvalues --    5.31895   5.33969   5.35842   5.37821   5.40812
 Alpha virt. eigenvalues --    5.41101   5.44263   5.45142   5.48014   5.48997
 Alpha virt. eigenvalues --    5.52280   5.55477   5.58659   5.60936   5.61503
 Alpha virt. eigenvalues --    5.63941   5.65641   5.67944   5.69287   5.72901
 Alpha virt. eigenvalues --    5.74046   5.77163   5.83300   5.87012   5.87726
 Alpha virt. eigenvalues --    5.90870   6.02398   6.08761   6.11877   6.14725
 Alpha virt. eigenvalues --    6.42111   6.44939   6.47898   6.50022   6.55258
 Alpha virt. eigenvalues --    6.64408   6.74544   6.80082   6.89138   6.89463
 Alpha virt. eigenvalues --    6.89837   6.92751   6.92828   6.93304   6.93960
 Alpha virt. eigenvalues --    6.94196   6.94589   6.95072   6.95259   6.96253
 Alpha virt. eigenvalues --    6.96583   6.99995   7.00243   7.03893   7.05498
 Alpha virt. eigenvalues --    7.06328   7.08143   7.13098   7.14129   7.17575
 Alpha virt. eigenvalues --    7.23733   7.27748   7.28155   7.28844   7.36282
 Alpha virt. eigenvalues --    7.38869   7.41694   7.48672   7.49110   7.52128
 Alpha virt. eigenvalues --    7.56940   7.62586   7.74036   7.76783   8.01600
 Alpha virt. eigenvalues --    8.09100   8.10372   8.10707   8.38589   8.41939
 Alpha virt. eigenvalues --    8.44464   8.48962   8.55709   8.63691   8.65656
 Alpha virt. eigenvalues --    8.77811   8.79891   8.82721   8.87835   8.90461
 Alpha virt. eigenvalues --    8.94039   8.99242   9.02037   9.09574   9.10558
 Alpha virt. eigenvalues --    9.16982   9.17895   9.41988   9.47745   9.62323
 Alpha virt. eigenvalues --    9.86279  10.84235  10.85610  11.38045  15.60271
 Alpha virt. eigenvalues --   22.09681  22.40122  22.49950  22.53861  22.55050
 Alpha virt. eigenvalues --   22.56333  22.57982  22.58969  22.60306  22.63015
 Alpha virt. eigenvalues --   22.64038  22.66155  22.67788  22.74374  22.77901
 Alpha virt. eigenvalues --   22.82709  22.83400  22.85208  22.92032  22.97714
 Alpha virt. eigenvalues --   23.04969  23.06454  23.11948  23.22210  23.30039
 Alpha virt. eigenvalues --   23.51396  23.85209  25.53689  32.83132  32.95395
 Alpha virt. eigenvalues --   43.83840  44.06725  44.35983  57.30478  57.46057
 Alpha virt. eigenvalues --   57.55678  57.67461 107.20106
          Condensed to atoms (all electrons):
 Mulliken charges:
               1
     1  Pd  -0.121721
     2  P    0.225471
     3  C    0.137144
     4  C   -0.469063
     5  H    0.160124
     6  H    0.141521
     7  H    0.157590
     8  C   -0.441324
     9  H    0.135105
    10  H    0.140455
    11  H    0.152093
    12  C   -0.496952
    13  H    0.145324
    14  H    0.140016
    15  H    0.170651
    16  C    0.160408
    17  C   -0.448399
    18  H    0.153240
    19  H    0.140551
    20  H    0.135634
    21  C   -0.509044
    22  H    0.174965
    23  H    0.146056
    24  H    0.139361
    25  C   -0.459171
    26  H    0.141995
    27  H    0.140509
    28  H    0.155566
    29  C    0.185788
    30  C   -0.443068
    31  H    0.134782
    32  H    0.138693
    33  H    0.153160
    34  C   -0.438531
    35  H    0.120464
    36  H    0.135780
    37  H    0.152605
    38  C   -0.484667
    39  H    0.128044
    40  H    0.140933
    41  H    0.144634
    42  C    0.069346
    43  C   -0.263592
    44  H    0.198947
    45  C   -0.228427
    46  H    0.149354
    47  C    0.386017
    48  C   -0.421094
    49  H    0.179283
    50  C   -0.005257
    51  C   -0.020444
    52  C    0.294587
    53  C    0.166533
    54  C    0.191039
    55  C    0.184327
    56  C   -0.035908
    57  N   -0.264470
    58  S    0.834983
    59  O   -0.488010
    60  O   -0.482538
    61  C   -0.167903
    62  Cl  -0.109605
    63  H    0.200995
    64  H    0.208182
    65  F   -0.190479
    66  F   -0.194227
    67  F   -0.195843
    68  F   -0.214135
    69  O   -0.302658
    70  C   -0.226943
    71  H    0.137399
    72  H    0.134779
    73  H    0.159043
 Sum of Mulliken charges =   0.00000
 Mulliken charges with hydrogens summed into heavy atoms:
               1
     1  Pd  -0.121721
     2  P    0.225471
     3  C    0.137144
     4  C   -0.009829
     8  C   -0.013672
    12  C   -0.040961
    16  C    0.160408
    17  C   -0.018974
    21  C   -0.048662
    25  C   -0.021100
    29  C    0.185788
    30  C   -0.016432
    34  C   -0.029682
    38  C   -0.071056
    42  C    0.069346
    43  C   -0.064646
    45  C   -0.079073
    47  C    0.386017
    48  C   -0.241811
    50  C   -0.005257
    51  C   -0.020444
    52  C    0.294587
    53  C    0.166533
    54  C    0.191039
    55  C    0.184327
    56  C   -0.035908
    57  N   -0.264470
    58  S    0.834983
    59  O   -0.488010
    60  O   -0.482538
    61  C    0.241274
    62  Cl  -0.109605
    65  F   -0.190479
    66  F   -0.194227
    67  F   -0.195843
    68  F   -0.214135
    69  O   -0.302658
    70  C    0.204277
 Electronic spatial extent (au):  <R**2>=          20143.0789
 Charge=              0.0000 electrons
 Dipole moment (field-independent basis, Debye):
    X=             -8.3307    Y=             -3.3496    Z=              6.4292  Tot=             11.0433
 Quadrupole moment (field-independent basis, Debye-Ang):
   XX=           -246.2369   YY=           -262.3645   ZZ=           -279.9213
   XY=            -17.9081   XZ=             15.4216   YZ=             -5.4900
 Traceless Quadrupole moment (field-independent basis, Debye-Ang):
   XX=             16.6040   YY=              0.4764   ZZ=            -17.0804
   XY=            -17.9081   XZ=             15.4216   YZ=             -5.4900
 Octapole moment (field-independent basis, Debye-Ang**2):
  XXX=            -51.8962  YYY=             26.0580  ZZZ=             61.1371  XYY=            -24.6258
  XXY=            -14.4195  XXZ=             19.3336  XZZ=            -52.6627  YZZ=            -39.7285
  YYZ=             22.8159  XYZ=            -24.8699
 Hexadecapole moment (field-independent basis, Debye-Ang**3):
 XXXX=         -13052.9006 YYYY=          -6703.4008 ZZZZ=          -6308.5251 XXXY=             -7.9439
 XXXZ=            255.6100 YYYX=           -103.6471 YYYZ=           -125.0259 ZZZX=            215.3803
 ZZZY=           -158.4584 XXYY=          -3357.4653 XXZZ=          -3344.7130 YYZZ=          -1997.0608
 XXYZ=            -44.0183 YYXZ=            129.2319 ZZXY=           -102.1836
 N-N= 6.114258869587D+03 E-N=-1.931202306740D+04  KE= 2.929287206971D+03
 No NMR shielding tensors so no spin-rotation constants.
 Leave Link  601 at Wed Nov 29 18:00:19 2023, MaxMem=  2147483648 cpu:        34.0
 (Enter /cluster/apps/gaussian/g09/l9999.exe)
 1\1\GINC-EU-G1-004-2\SP\RwB97XD\GenECP\C26H35Cl1F4N1O3P1Pd1S1\SROEDIGE
 R\29-Nov-2023\0\\#p sp geom=allcheck scrf(solvent=dichloromethane,smd)
  wb97xd genecp temperature=313 integral(grid=ultrafine)\\title\\0,1\Pd
 ,0,0.7042139372,-0.8082620231,-0.0748161221\P,0,2.6156875652,0.0073163
 727,0.9191895332\C,0,2.9284297721,-1.076597527,2.4647807763\C,0,2.6234
 747766,-2.5311025074,2.072198333\H,0,3.3127354231,-2.942319,1.32812343
 94\H,0,2.689670944,-3.1638923947,2.9728321026\H,0,1.5982006377,-2.6301
 89979,1.6751457884\C,0,4.3317987618,-0.9828657845,3.0646042941\H,0,5.1
 093529776,-1.3425613796,2.3783604509\H,0,4.3797001522,-1.6159019843,3.
 9665247896\H,0,4.5911939151,0.0398857585,3.3681564343\C,0,1.9005915582
 ,-0.7154165027,3.5421984338\H,0,1.9512828332,-1.4751130871,4.339170380
 5\H,0,2.0936246962,0.2583571825,4.0094590164\H,0,0.8751397503,-0.72119
 88618,3.1417146037\C,0,4.1237552061,-0.1211075561,-0.2489729192\C,0,5.
 3483071691,0.6924262752,0.1717647658\H,0,5.7066462862,0.4304426314,1.1
 761267735\H,0,6.1707914566,0.4903868543,-0.534598268\H,0,5.1616821195,
 1.7741273715,0.145266436\C,0,4.5242349546,-1.5934401117,-0.3932889756\
 H,0,3.6636102296,-2.2195992106,-0.6737044383\H,0,5.2646046584,-1.67083
 17718,-1.2060870824\H,0,4.9894812827,-2.0098132081,0.5088121391\C,0,3.
 6635769191,0.311612888,-1.6482062068\H,0,4.5148192678,0.2188130711,-2.
 3430149177\H,0,2.8588366158,-0.3463666782,-2.0059160236\H,0,3.30074698
 03,1.3431968958,-1.6990857211\C,0,2.3868290903,1.8280193841,1.46123067
 16\C,0,3.4139475071,2.3320138201,2.4765079734\H,0,3.339760244,1.809193
 3425,3.4395607168\H,0,3.2214955201,3.3995327104,2.6755451682\H,0,4.447
 592084,2.2463040359,2.1185240121\C,0,0.9761394467,1.9915093488,2.04644
 43503\H,0,0.2108194627,1.6114120368,1.3560874974\H,0,0.786655033,3.066
 7171673,2.1993946633\H,0,0.8443904626,1.4958637233,3.0131158182\C,0,2.
 4273646037,2.7152967236,0.2116708972\H,0,1.7164707199,2.3731601147,-0.
 5545553753\H,0,2.1310770739,3.7358551357,0.503420903\H,0,3.4270287783,
 2.7845949932,-0.2357481556\C,0,-0.3876076809,0.4975949537,-1.199646967
 \C,0,0.2253948105,0.8612886289,-2.4113454367\H,0,0.8761221161,0.158369
 7234,-2.9313435968\C,0,0.0281896779,2.1406299182,-2.9099770018\H,0,0.5
 413128027,2.470099569,-3.8158353896\C,0,-0.8175880212,3.0569468065,-2.
 2567072283\C,0,-1.5456745508,2.6457683586,-1.1411442565\H,0,-2.2889541
 575,3.2916095054,-0.6770557945\C,0,-1.3725577695,1.34405271,-0.6439326
 262\C,0,-2.2514849424,0.6548788452,0.2827801343\C,0,-3.15161067,1.1935
 244646,1.1978583432\C,0,-3.9554662603,0.3607726277,1.9692752044\C,0,-3
 .8511664854,-1.0250321636,1.8357112604\C,0,-2.9416647444,-1.5910148098
 ,0.9416371369\C,0,-2.1598844099,-0.7549010473,0.142595862\N,0,-1.17265
 32846,-1.1714462287,-0.7635705098\S,0,-1.5167329502,-2.1003299774,-2.1
 180399825\O,0,-0.2515951678,-2.2409495993,-2.8191662914\O,0,-2.3205198
 793,-3.2504401342,-1.7554117757\C,0,-2.5843439029,-0.9741173003,-3.052
 35477\Cl,0,-3.165820004,-1.7442985458,-4.5220114196\H,0,-1.9978165236,
 -0.0795471233,-3.2970644257\H,0,-3.4317530128,-0.7224547406,-2.4000995
 607\F,0,-2.8150891049,-2.9021696342,0.9246859349\F,0,-4.5879812205,-1.
 8067212403,2.6056805767\F,0,-4.8049648895,0.8713666009,2.8448004848\F,
 0,-3.2523457854,2.5095417316,1.3657509146\O,0,-0.8956226578,4.28778616
 92,-2.8065263889\C,0,-1.7480828539,5.2272978239,-2.2170652042\H,0,-1.4
 768736095,5.4235515322,-1.16410792\H,0,-2.8044346966,4.9059737956,-2.2
 536371139\H,0,-1.6412289243,6.1561970403,-2.791398339\\Version=ES64L-G
 09RevD.01\State=1-A\HF=-3019.4942479\RMSD=6.463e-09\Dipole=2.7291361,3
 .0171862,1.5249175\Quadrupole=10.7204449,-5.7087878,-5.0116571,-13.171
 3932,9.5935679,-11.4209426\PG=C01 [X(C26H35Cl1F4N1O3P1Pd1S1)]\\@


 CLIMB THE MOUNTAINS AND GET THEIR GOOD TIDINGS.
 NATURE'S PEACE WILL FLOW INTO YOU AS SUNSHINE FLOWS INTO TREES.
 THE WINDS WILL BLOW THEIR OWN FRESHNESS INTO YOU, 
 AND CARES WILL DROP OFF LIKE AUTUMN LEAVES.

                                         -- JOHN MUIR
 Job cpu time:       0 days 20 hours 31 minutes 30.9 seconds.
 File lengths (MBytes):  RWF=   1458 Int=      0 D2E=      0 Chk=     88 Scr=      1
 Normal termination of Gaussian 09 at Wed Nov 29 18:00:20 2023.
