 Entering Gaussian System, Link 0=g09
 Input=ts-tbu2cy-v5-released-sp.com
 Output=ts-tbu2cy-v5-released-sp.log
 Initial command:
 /cluster/apps/gaussian/g09/l1.exe "/cluster/scratch/sroediger/michael/singlepoints/Gau-1705.inp" -scrdir="/cluster/scratch/sroediger/michael/singlepoints/"
 Entering Link 1 = /cluster/apps/gaussian/g09/l1.exe PID=      1715.
  
 Copyright (c) 1988,1990,1992,1993,1995,1998,2003,2009,2013,
            Gaussian, Inc.  All Rights Reserved.
  
 This is part of the Gaussian(R) 09 program.  It is based on
 the Gaussian(R) 03 system (copyright 2003, Gaussian, Inc.),
 the Gaussian(R) 98 system (copyright 1998, Gaussian, Inc.),
 the Gaussian(R) 94 system (copyright 1995, Gaussian, Inc.),
 the Gaussian 92(TM) system (copyright 1992, Gaussian, Inc.),
 the Gaussian 90(TM) system (copyright 1990, Gaussian, Inc.),
 the Gaussian 88(TM) system (copyright 1988, Gaussian, Inc.),
 the Gaussian 86(TM) system (copyright 1986, Carnegie Mellon
 University), and the Gaussian 82(TM) system (copyright 1983,
 Carnegie Mellon University). Gaussian is a federally registered
 trademark of Gaussian, Inc.
  
 This software contains proprietary and confidential information,
 including trade secrets, belonging to Gaussian, Inc.
  
 This software is provided under written license and may be
 used, copied, transmitted, or stored only in accord with that
 written license.
  
 The following legend is applicable only to US Government
 contracts under FAR:
  
                    RESTRICTED RIGHTS LEGEND
  
 Use, reproduction and disclosure by the US Government is
 subject to restrictions as set forth in subparagraphs (a)
 and (c) of the Commercial Computer Software - Restricted
 Rights clause in FAR 52.227-19.
  
 Gaussian, Inc.
 340 Quinnipiac St., Bldg. 40, Wallingford CT 06492
  
  
 ---------------------------------------------------------------
 Warning -- This program may not be used in any manner that
 competes with the business of Gaussian, Inc. or will provide
 assistance to any competitor of Gaussian, Inc.  The licensee
 of this program is prohibited from giving any competitor of
 Gaussian, Inc. access to this program.  By using this program,
 the user acknowledges that Gaussian, Inc. is engaged in the
 business of creating and licensing software in the field of
 computational chemistry and represents and warrants to the
 licensee that it is not a competitor of Gaussian, Inc. and that
 it will not use this program in any manner prohibited above.
 ---------------------------------------------------------------
  

 Cite this work as:
 Gaussian 09, Revision D.01,
 M. J. Frisch, G. W. Trucks, H. B. Schlegel, G. E. Scuseria, 
 M. A. Robb, J. R. Cheeseman, G. Scalmani, V. Barone, B. Mennucci, 
 G. A. Petersson, H. Nakatsuji, M. Caricato, X. Li, H. P. Hratchian, 
 A. F. Izmaylov, J. Bloino, G. Zheng, J. L. Sonnenberg, M. Hada, 
 M. Ehara, K. Toyota, R. Fukuda, J. Hasegawa, M. Ishida, T. Nakajima, 
 Y. Honda, O. Kitao, H. Nakai, T. Vreven, J. A. Montgomery, Jr., 
 J. E. Peralta, F. Ogliaro, M. Bearpark, J. J. Heyd, E. Brothers, 
 K. N. Kudin, V. N. Staroverov, T. Keith, R. Kobayashi, J. Normand, 
 K. Raghavachari, A. Rendell, J. C. Burant, S. S. Iyengar, J. Tomasi, 
 M. Cossi, N. Rega, J. M. Millam, M. Klene, J. E. Knox, J. B. Cross, 
 V. Bakken, C. Adamo, J. Jaramillo, R. Gomperts, R. E. Stratmann, 
 O. Yazyev, A. J. Austin, R. Cammi, C. Pomelli, J. W. Ochterski, 
 R. L. Martin, K. Morokuma, V. G. Zakrzewski, G. A. Voth, 
 P. Salvador, J. J. Dannenberg, S. Dapprich, A. D. Daniels, 
 O. Farkas, J. B. Foresman, J. V. Ortiz, J. Cioslowski, 
 and D. J. Fox, Gaussian, Inc., Wallingford CT, 2013.
 
 ******************************************
 Gaussian 09:  ES64L-G09RevD.01 24-Apr-2013
                 3-Mar-2024 
 ******************************************
 %nprocshared=8
 Will use up to    8 processors via shared memory.
 %mem=16GB
 %oldchk=ts-tbu2cy-v5-released.chk
 %chk=ts-tbu2cy-v5-released-sp.chk
 Copying data from "ts-tbu2cy-v5-released.chk" to current chk file "ts-tbu2cy-v5-released-sp.chk".
 ----------------------------------------------------------------------
 #p sp geom=allcheck scrf(solvent=dichloromethane,smd) wb97xd genecp te
 mperature=313 integral(grid=ultrafine)
 ----------------------------------------------------------------------
 1/29=7,38=1,112=313000/1;
 2/12=2,40=1/2;
 3/5=7,11=2,14=-4,16=1,17=8,25=1,30=1,70=32201,72=9,74=-58,75=-5/1,2,3;
 4//1;
 5/5=2,38=5,53=9/2;
 6/7=2,8=2,9=2,10=2,28=1/1;
 99/5=1,9=1/99;
 Leave Link    1 at Sun Mar  3 12:46:53 2024, MaxMem=  2147483648 cpu:         1.1
 (Enter /cluster/apps/gaussian/g09/l101.exe)
 Structure from the checkpoint file:  "ts-tbu2cy-v5-released-sp.chk"
 -----
 title
 -----
 Charge =  0 Multiplicity = 1
 Redundant internal coordinates found in file.
 Pd,0,-0.1630534908,-0.6963758416,0.8336405766
 C,0,1.5563162752,0.335233906,1.2058498366
 C,0,1.6520605896,0.8216167258,2.5209901335
 H,0,1.1783000923,0.2840457466,3.342671163
 C,0,2.3062654702,2.0245815482,2.7489663831
 H,0,2.3412721437,2.4588385353,3.7503224981
 C,0,2.9194560371,2.7317220089,1.6984703618
 C,0,2.9485901791,2.1768357136,0.419180646
 H,0,3.5042770232,2.6446397281,-0.3914472232
 C,0,2.311581362,0.9496845852,0.1828066575
 C,0,2.4932545739,0.0929308524,-0.9746342133
 C,0,2.9502238604,0.4258163305,-2.2453658936
 C,0,3.121471154,-0.5593655027,-3.2122807771
 C,0,2.8177159831,-1.8881450422,-2.9115391125
 C,0,2.3383956399,-2.2444883822,-1.6510884517
 C,0,2.2078048863,-1.2618958867,-0.6710383994
 N,0,1.7125253214,-1.4589650031,0.6296996659
 S,0,2.4590279532,-2.4412310378,1.7566045008
 O,0,1.636184752,-2.3517436585,2.9552046156
 O,0,2.8172299603,-3.7135649953,1.1629532152
 C,0,3.9947756223,-1.5889893479,2.187489791
 Cl,0,5.1301873171,-1.4844160215,0.8479802314
 H,0,4.4234919611,-2.1913511152,3.0003340548
 H,0,3.7317662594,-0.5839740249,2.5419102398
 F,0,1.9833193156,-3.4973772254,-1.4462590369
 F,0,2.938959082,-2.8087074051,-3.8528274723
 F,0,3.5469643278,-0.2434159183,-4.4246943451
 F,0,3.2193163923,1.6888568302,-2.5679185314
 O,0,3.4893311048,3.9106861574,2.0301770704
 C,0,4.1447327439,4.6371626805,1.0303528373
 H,0,3.464228223,4.8989083099,0.2001776687
 H,0,5.0068216497,4.084109334,0.6165086884
 H,0,4.5084108924,5.5613120801,1.4971887321
 P,0,-2.1037063864,0.53901766,0.7426132127
 C,0,-2.877654932,0.7962483854,2.4270340237
 C,0,-1.7992979533,2.2058842108,-0.1033876207
 C,0,-3.3964571061,-0.5035317757,-0.17330132
 C,0,-1.8147428782,0.7930547406,3.5322036467
 C,0,-3.875497947,1.9399908244,2.6311317505
 H,0,-3.4419603411,-0.1479853758,2.5441738834
 C,0,-3.0572979165,2.9575843942,-0.5367739047
 C,0,-0.9913992635,3.0465307191,0.8926456724
 C,0,-0.9068061966,1.9704439486,-1.3285613217
 C,0,-3.0407882942,-0.5808945561,-1.6583901492
 C,0,-3.2562344572,-1.913077126,0.4187485667
 C,0,-4.8409924735,-0.0334136953,-0.0058084913
 C,0,-2.4488199767,0.751711216,4.9181458308
 H,0,-1.1473023958,-0.0719586208,3.388722898
 H,0,-1.1787538324,1.6897823196,3.4398707567
 C,0,-4.508552535,1.8717402973,4.0191662691
 H,0,-4.6601722471,1.9233938811,1.8622699064
 H,0,-3.3583473461,2.907777978,2.5294659938
 H,0,-3.7350380876,3.1747603638,0.2983164881
 H,0,-2.7618191788,3.9225714798,-0.9816385295
 H,0,-3.6196697485,2.4080580836,-1.3051332745
 H,0,-0.6728750531,3.9781389533,0.3971770738
 H,0,-1.5714942307,3.3278790918,1.781520067
 H,0,-0.08501979,2.5195715457,1.2233349599
 H,0,-0.0064538819,1.3976845609,-1.0641178085
 H,0,-0.5833522283,2.9475033527,-1.7238966791
 H,0,-1.4252049616,1.4419512928,-2.1375944344
 H,0,-3.2373460003,0.3635136115,-2.1847031347
 H,0,-1.9834661585,-0.8513904017,-1.8070738733
 H,0,-3.6573850205,-1.3587714583,-2.1380855551
 H,0,-3.9929775089,-2.5852608885,-0.051794822
 H,0,-2.2525290081,-2.3314546365,0.2321465865
 H,0,-3.4314532584,-1.9392455064,1.5050752072
 H,0,-5.5065969168,-0.697210363,-0.5826496989
 H,0,-5.1711859696,-0.0794712431,1.0419782176
 H,0,-4.9977377182,0.9897184487,-0.3728448373
 C,0,-3.452671749,1.8804028216,5.117307902
 H,0,-1.662745954,0.7899574076,5.6893316533
 H,0,-2.9623528276,-0.218089869,5.0490464921
 H,0,-5.2109605017,2.7109333843,4.1492598747
 H,0,-5.1105287903,0.9480097143,4.0980036905
 H,0,-3.9271819096,1.8055044084,6.108947682
 H,0,-2.920623017,2.8489983759,5.0994671081
 Recover connectivity data from disk.
 NAtoms=     77 NQM=       77 NQMF=       0 NMMI=      0 NMMIF=      0
                NMic=       0 NMicF=      0.
                    Isotopes and Nuclear Properties:
 (Nuclear quadrupole moments (NQMom) in fm**2, nuclear magnetic moments (NMagM)
  in nuclear magnetons)

  Atom         1           2           3           4           5           6           7           8           9          10
 IAtWgt=         106          12          12           1          12           1          12          12           1          12
 AtmWgt= 105.9032000  12.0000000  12.0000000   1.0078250  12.0000000   1.0078250  12.0000000  12.0000000   1.0078250  12.0000000
 NucSpn=           0           0           0           1           0           1           0           0           1           0
 AtZEff=-237.3600000  -3.6000000  -3.6000000  -1.0000000  -3.6000000  -1.0000000  -3.6000000  -3.6000000  -1.0000000  -3.6000000
 NQMom=    0.0000000   0.0000000   0.0000000   0.0000000   0.0000000   0.0000000   0.0000000   0.0000000   0.0000000   0.0000000
 NMagM=    0.0000000   0.0000000   0.0000000   2.7928460   0.0000000   2.7928460   0.0000000   0.0000000   2.7928460   0.0000000
 AtZNuc=  46.0000000   6.0000000   6.0000000   1.0000000   6.0000000   1.0000000   6.0000000   6.0000000   1.0000000   6.0000000

  Atom        11          12          13          14          15          16          17          18          19          20
 IAtWgt=          12          12          12          12          12          12          14          32          16          16
 AtmWgt=  12.0000000  12.0000000  12.0000000  12.0000000  12.0000000  12.0000000  14.0030740  31.9720718  15.9949146  15.9949146
 NucSpn=           0           0           0           0           0           0           2           0           0           0
 AtZEff=  -3.6000000  -3.6000000  -3.6000000  -3.6000000  -3.6000000  -3.6000000  -4.5500000 -13.6000000  -5.6000000  -5.6000000
 NQMom=    0.0000000   0.0000000   0.0000000   0.0000000   0.0000000   0.0000000   2.0440000   0.0000000   0.0000000   0.0000000
 NMagM=    0.0000000   0.0000000   0.0000000   0.0000000   0.0000000   0.0000000   0.4037610   0.0000000   0.0000000   0.0000000
 AtZNuc=   6.0000000   6.0000000   6.0000000   6.0000000   6.0000000   6.0000000   7.0000000  16.0000000   8.0000000   8.0000000

  Atom        21          22          23          24          25          26          27          28          29          30
 IAtWgt=          12          35           1           1          19          19          19          19          16          12
 AtmWgt=  12.0000000  34.9688527   1.0078250   1.0078250  18.9984033  18.9984033  18.9984033  18.9984033  15.9949146  12.0000000
 NucSpn=           0           3           1           1           1           1           1           1           0           0
 AtZEff=  -3.6000000 -14.2400000  -1.0000000  -1.0000000  -6.7500000  -6.7500000  -6.7500000  -6.7500000  -5.6000000  -3.6000000
 NQMom=    0.0000000  -8.1650000   0.0000000   0.0000000   0.0000000   0.0000000   0.0000000   0.0000000   0.0000000   0.0000000
 NMagM=    0.0000000   0.8218740   2.7928460   2.7928460   2.6288670   2.6288670   2.6288670   2.6288670   0.0000000   0.0000000
 AtZNuc=   6.0000000  17.0000000   1.0000000   1.0000000   9.0000000   9.0000000   9.0000000   9.0000000   8.0000000   6.0000000

  Atom        31          32          33          34          35          36          37          38          39          40
 IAtWgt=           1           1           1          31          12          12          12          12          12           1
 AtmWgt=   1.0078250   1.0078250   1.0078250  30.9737634  12.0000000  12.0000000  12.0000000  12.0000000  12.0000000   1.0078250
 NucSpn=           1           1           1           1           0           0           0           0           0           1
 AtZEff=  -1.0000000  -1.0000000  -1.0000000 -12.9400000  -3.6000000  -3.6000000  -3.6000000  -3.6000000  -3.6000000  -1.0000000
 NQMom=    0.0000000   0.0000000   0.0000000   0.0000000   0.0000000   0.0000000   0.0000000   0.0000000   0.0000000   0.0000000
 NMagM=    2.7928460   2.7928460   2.7928460   1.1316000   0.0000000   0.0000000   0.0000000   0.0000000   0.0000000   2.7928460
 AtZNuc=   1.0000000   1.0000000   1.0000000  15.0000000   6.0000000   6.0000000   6.0000000   6.0000000   6.0000000   1.0000000

  Atom        41          42          43          44          45          46          47          48          49          50
 IAtWgt=          12          12          12          12          12          12          12           1           1          12
 AtmWgt=  12.0000000  12.0000000  12.0000000  12.0000000  12.0000000  12.0000000  12.0000000   1.0078250   1.0078250  12.0000000
 NucSpn=           0           0           0           0           0           0           0           1           1           0
 AtZEff=  -3.6000000  -3.6000000  -3.6000000  -3.6000000  -3.6000000  -3.6000000  -3.6000000  -1.0000000  -1.0000000  -3.6000000
 NQMom=    0.0000000   0.0000000   0.0000000   0.0000000   0.0000000   0.0000000   0.0000000   0.0000000   0.0000000   0.0000000
 NMagM=    0.0000000   0.0000000   0.0000000   0.0000000   0.0000000   0.0000000   0.0000000   2.7928460   2.7928460   0.0000000
 AtZNuc=   6.0000000   6.0000000   6.0000000   6.0000000   6.0000000   6.0000000   6.0000000   1.0000000   1.0000000   6.0000000

  Atom        51          52          53          54          55          56          57          58          59          60
 IAtWgt=           1           1           1           1           1           1           1           1           1           1
 AtmWgt=   1.0078250   1.0078250   1.0078250   1.0078250   1.0078250   1.0078250   1.0078250   1.0078250   1.0078250   1.0078250
 NucSpn=           1           1           1           1           1           1           1           1           1           1
 AtZEff=  -1.0000000  -1.0000000  -1.0000000  -1.0000000  -1.0000000  -1.0000000  -1.0000000  -1.0000000  -1.0000000  -1.0000000
 NQMom=    0.0000000   0.0000000   0.0000000   0.0000000   0.0000000   0.0000000   0.0000000   0.0000000   0.0000000   0.0000000
 NMagM=    2.7928460   2.7928460   2.7928460   2.7928460   2.7928460   2.7928460   2.7928460   2.7928460   2.7928460   2.7928460
 AtZNuc=   1.0000000   1.0000000   1.0000000   1.0000000   1.0000000   1.0000000   1.0000000   1.0000000   1.0000000   1.0000000

  Atom        61          62          63          64          65          66          67          68          69          70
 IAtWgt=           1           1           1           1           1           1           1           1           1           1
 AtmWgt=   1.0078250   1.0078250   1.0078250   1.0078250   1.0078250   1.0078250   1.0078250   1.0078250   1.0078250   1.0078250
 NucSpn=           1           1           1           1           1           1           1           1           1           1
 AtZEff=  -1.0000000  -1.0000000  -1.0000000  -1.0000000  -1.0000000  -1.0000000  -1.0000000  -1.0000000  -1.0000000  -1.0000000
 NQMom=    0.0000000   0.0000000   0.0000000   0.0000000   0.0000000   0.0000000   0.0000000   0.0000000   0.0000000   0.0000000
 NMagM=    2.7928460   2.7928460   2.7928460   2.7928460   2.7928460   2.7928460   2.7928460   2.7928460   2.7928460   2.7928460
 AtZNuc=   1.0000000   1.0000000   1.0000000   1.0000000   1.0000000   1.0000000   1.0000000   1.0000000   1.0000000   1.0000000

  Atom        71          72          73          74          75          76          77
 IAtWgt=          12           1           1           1           1           1           1
 AtmWgt=  12.0000000   1.0078250   1.0078250   1.0078250   1.0078250   1.0078250   1.0078250
 NucSpn=           0           1           1           1           1           1           1
 AtZEff=  -3.6000000  -1.0000000  -1.0000000  -1.0000000  -1.0000000  -1.0000000  -1.0000000
 NQMom=    0.0000000   0.0000000   0.0000000   0.0000000   0.0000000   0.0000000   0.0000000
 NMagM=    0.0000000   2.7928460   2.7928460   2.7928460   2.7928460   2.7928460   2.7928460
 AtZNuc=   6.0000000   1.0000000   1.0000000   1.0000000   1.0000000   1.0000000   1.0000000
 Leave Link  101 at Sun Mar  3 12:46:54 2024, MaxMem=  2147483648 cpu:         2.3
 (Enter /cluster/apps/gaussian/g09/l202.exe)
 Stoichiometry    C28H37ClF4NO3PPdS
 Framework group  C1[X(C28H37ClF4NO3PPdS)]
 Deg. of freedom   225
 Full point group                 C1      NOp   1
 RotChk:  IX=0 Diff= 5.55D-15
 Largest Abelian subgroup         C1      NOp   1
 Largest concise Abelian subgroup C1      NOp   1
                         Standard orientation:                         
 ---------------------------------------------------------------------
 Center     Atomic      Atomic             Coordinates (Angstroms)
 Number     Number       Type             X           Y           Z
 ---------------------------------------------------------------------
      1         46           0        0.506183   -0.621015   -0.697311
      2          6           0       -0.551325    1.069048   -0.267941
      3          6           0        0.032485    2.245452   -0.768511
      4          1           0        0.625668    2.219772   -1.682877
      5          6           0       -0.107510    3.425645   -0.051137
      6          1           0        0.387952    4.340895   -0.381824
      7          6           0       -0.866832    3.473951    1.132370
      8          6           0       -1.564159    2.340637    1.550299
      9          1           0       -2.243816    2.371856    2.399910
     10          6           0       -1.449318    1.149082    0.819162
     11          6           0       -2.315070   -0.011466    0.920656
     12          6           0       -3.132281   -0.402672    1.975890
     13          6           0       -3.948136   -1.522922    1.856502
     14          6           0       -3.935325   -2.269098    0.676916
     15          6           0       -3.109385   -1.909316   -0.387905
     16          6           0       -2.324362   -0.762379   -0.281530
     17          7           0       -1.423551   -0.289919   -1.251776
     18         16           0       -1.894731    0.210263   -2.774877
     19          8           0       -0.669421    0.628072   -3.442538
     20          8           0       -2.803410   -0.751012   -3.366329
     21          6           0       -2.819015    1.741585   -2.507944
     22         17           0       -4.318897    1.501603   -1.620733
     23          1           0       -3.033509    2.111964   -3.519954
     24          1           0       -2.164810    2.437444   -1.966982
     25          9           0       -3.069273   -2.696691   -1.444407
     26          9           0       -4.679153   -3.358936    0.592454
     27          9           0       -4.719160   -1.902284    2.862694
     28          9           0       -3.142162    0.273564    3.122332
     29          8           0       -0.898273    4.665026    1.768842
     30          6           0       -1.668481    4.777804    2.931180
     31          1           0       -1.337338    4.070968    3.713174
     32          1           0       -2.741481    4.604977    2.733358
     33          1           0       -1.537373    5.803118    3.299680
     34         15           0        2.506313   -0.891192    0.410435
     35          6           0        3.932158   -0.039309   -0.451946
     36          6           0        2.367850   -0.292099    2.201731
     37          6           0        2.969853   -2.727114    0.303038
     38          6           0        3.451539    1.183562   -1.242379
     39          6           0        5.204588    0.284525    0.336436
     40          1           0        4.205751   -0.801236   -1.205838
     41          6           0        3.499558   -0.735704    3.127956
     42          6           0        2.302186    1.238442    2.133905
     43          6           0        1.030188   -0.779710    2.772624
     44          6           0        2.039192   -3.548688    1.195709
     45          6           0        2.690888   -3.118580   -1.155022
     46          6           0        4.427394   -3.045163    0.634950
     47          6           0        4.551321    1.735373   -2.142703
     48          1           0        2.569552    0.903047   -1.840477
     49          1           0        3.112192    1.968060   -0.544858
     50          6           0        6.296769    0.822171   -0.585591
     51          1           0        5.573041   -0.599467    0.874896
     52          1           0        4.984916    1.047345    1.100793
     53          1           0        4.487685   -0.403485    2.785743
     54          1           0        3.333668   -0.302007    4.128356
     55          1           0        3.525000   -1.827854    3.251150
     56          1           0        2.086438    1.631191    3.140901
     57          1           0        3.244996    1.690826    1.798907
     58          1           0        1.498347    1.578542    1.465518
     59          1           0        0.192010   -0.512122    2.113479
     60          1           0        0.863309   -0.293535    3.747993
     61          1           0        1.006830   -1.863895    2.935637
     62          1           0        2.263152   -3.419300    2.263720
     63          1           0        0.982489   -3.288794    1.025301
     64          1           0        2.164217   -4.618611    0.961131
     65          1           0        2.953908   -4.178409   -1.308696
     66          1           0        1.624059   -2.997015   -1.408761
     67          1           0        3.274443   -2.525383   -1.875488
     68          1           0        4.587928   -4.133233    0.552895
     69          1           0        5.124775   -2.564021   -0.065884
     70          1           0        4.703050   -2.747750    1.655559
     71          6           0        5.822767    2.044171   -1.362064
     72          1           0        4.188665    2.634407   -2.666460
     73          1           0        4.779073    0.991803   -2.927940
     74          1           0        7.196557    1.061718    0.003939
     75          1           0        6.593470    0.029582   -1.296675
     76          1           0        6.615075    2.401882   -2.039124
     77          1           0        5.624169    2.868310   -0.652891
 ---------------------------------------------------------------------
 Rotational constants (GHZ):      0.1026858      0.0590418      0.0558626
 Leave Link  202 at Sun Mar  3 12:46:54 2024, MaxMem=  2147483648 cpu:         0.0
 (Enter /cluster/apps/gaussian/g09/l301.exe)
 General basis read from cards:  (5D, 7F)
 Centers:       2      3      5      7      8     10     11     12     13     14
 Centers:      15     16     21     30     35     36     37     38     39     41
 Centers:      42     43     44     45     46     47     50     71      4      6
 Centers:       9     23     24     31     32     33     40     48     49     51
 Centers:      52     53     54     55     56     57     58     59     60     61
 Centers:      62     63     64     65     66     67     68     69     70     72
 Centers:      73     74     75     76     77     18     25     26     27     28
 Centers:      17     34     22     19     20     29      1
 def2tzvp
 ****
 ======================================================================================================
                                       Pseudopotential Parameters
 ======================================================================================================
  Center     Atomic      Valence      Angular      Power
  Number     Number     Electrons     Momentum     of R      Exponent        Coefficient   SO-Coeffient
 ======================================================================================================
    1         46           18
                                      G and up 
                                                     2        1.0000000        0.00000000    0.00000000
                                      S - G
                                                     2       12.4300000      240.22904000    0.00000000
                                                     2        6.1707590       35.17194300    0.00000000
                                      P - G
                                                     2       11.0800000      170.41727600    0.00000000
                                                     2        5.8295540       28.47213300    0.00000000
                                      D - G
                                                     2        9.5100000       69.01384500    0.00000000
                                                     2        4.1397810       11.75086200    0.00000000
                                      F - G
                                                     2       13.2700000      -31.92955400    0.00000000
                                                     2        6.6300000       -5.39821700    0.00000000
    2          6
                                   No pseudopotential on this center.
    3          6
                                   No pseudopotential on this center.
    4          1
                                   No pseudopotential on this center.
    5          6
                                   No pseudopotential on this center.
    6          1
                                   No pseudopotential on this center.
    7          6
                                   No pseudopotential on this center.
    8          6
                                   No pseudopotential on this center.
    9          1
                                   No pseudopotential on this center.
   10          6
                                   No pseudopotential on this center.
   11          6
                                   No pseudopotential on this center.
   12          6
                                   No pseudopotential on this center.
   13          6
                                   No pseudopotential on this center.
   14          6
                                   No pseudopotential on this center.
   15          6
                                   No pseudopotential on this center.
   16          6
                                   No pseudopotential on this center.
   17          7
                                   No pseudopotential on this center.
   18         16
                                   No pseudopotential on this center.
   19          8
                                   No pseudopotential on this center.
   20          8
                                   No pseudopotential on this center.
   21          6
                                   No pseudopotential on this center.
   22         17
                                   No pseudopotential on this center.
   23          1
                                   No pseudopotential on this center.
   24          1
                                   No pseudopotential on this center.
   25          9
                                   No pseudopotential on this center.
   26          9
                                   No pseudopotential on this center.
   27          9
                                   No pseudopotential on this center.
   28          9
                                   No pseudopotential on this center.
   29          8
                                   No pseudopotential on this center.
   30          6
                                   No pseudopotential on this center.
   31          1
                                   No pseudopotential on this center.
   32          1
                                   No pseudopotential on this center.
   33          1
                                   No pseudopotential on this center.
   34         15
                                   No pseudopotential on this center.
   35          6
                                   No pseudopotential on this center.
   36          6
                                   No pseudopotential on this center.
   37          6
                                   No pseudopotential on this center.
   38          6
                                   No pseudopotential on this center.
   39          6
                                   No pseudopotential on this center.
   40          1
                                   No pseudopotential on this center.
   41          6
                                   No pseudopotential on this center.
   42          6
                                   No pseudopotential on this center.
   43          6
                                   No pseudopotential on this center.
   44          6
                                   No pseudopotential on this center.
   45          6
                                   No pseudopotential on this center.
   46          6
                                   No pseudopotential on this center.
   47          6
                                   No pseudopotential on this center.
   48          1
                                   No pseudopotential on this center.
   49          1
                                   No pseudopotential on this center.
   50          6
                                   No pseudopotential on this center.
   51          1
                                   No pseudopotential on this center.
   52          1
                                   No pseudopotential on this center.
   53          1
                                   No pseudopotential on this center.
   54          1
                                   No pseudopotential on this center.
   55          1
                                   No pseudopotential on this center.
   56          1
                                   No pseudopotential on this center.
   57          1
                                   No pseudopotential on this center.
   58          1
                                   No pseudopotential on this center.
   59          1
                                   No pseudopotential on this center.
   60          1
                                   No pseudopotential on this center.
   61          1
                                   No pseudopotential on this center.
   62          1
                                   No pseudopotential on this center.
   63          1
                                   No pseudopotential on this center.
   64          1
                                   No pseudopotential on this center.
   65          1
                                   No pseudopotential on this center.
   66          1
                                   No pseudopotential on this center.
   67          1
                                   No pseudopotential on this center.
   68          1
                                   No pseudopotential on this center.
   69          1
                                   No pseudopotential on this center.
   70          1
                                   No pseudopotential on this center.
   71          6
                                   No pseudopotential on this center.
   72          1
                                   No pseudopotential on this center.
   73          1
                                   No pseudopotential on this center.
   74          1
                                   No pseudopotential on this center.
   75          1
                                   No pseudopotential on this center.
   76          1
                                   No pseudopotential on this center.
   77          1
                                   No pseudopotential on this center.
 ======================================================================================================
 Ernie: Thresh=  0.10000D-02 Tol=  0.10000D-05 Strict=F.
 There are  1690 symmetry adapted cartesian basis functions of A   symmetry.
 There are  1489 symmetry adapted basis functions of A   symmetry.
  1489 basis functions,  2413 primitive gaussians,  1690 cartesian basis functions
   169 alpha electrons      169 beta electrons
       nuclear repulsion energy      6563.4295135997 Hartrees.
 IExCor= 4639 DFT=T Ex+Corr=wB97XD ExCW=0 ScaHFX=  1.000000
 ScaDFX=  1.000000  1.000000  1.000000  1.000000 ScalE2=  1.000000  1.000000
 IRadAn=      5 IRanWt=     -1 IRanGd=            0 ICorTp=0 IEmpDi=121
  HFx wShort=  0.000000 wLong=  0.200000 cFull=  0.222036 cShort=  0.000000 cLong=  0.777964
  DFx wShort=  0.000000 wLong=  0.200000 cFull=  0.000000 cShort=  0.000000 cLong=  1.000000
 NAtoms=   77 NActive=   77 NUniq=   77 SFac= 1.00D+00 NAtFMM=   60 NAOKFM=T Big=T
 Integral buffers will be    131072 words long.
 Raffenetti 2 integral format.
 Two-electron integral symmetry is turned on.
 R6Disp:  Grimme-D2 Dispersion energy=       -0.1018599026 Hartrees.
 Nuclear repulsion after empirical dispersion term =     6563.3276536971 Hartrees.
 ------------------------------------------------------------------------------
 Polarizable Continuum Model (PCM)
 =================================
 Model                : PCM (using non-symmetric T matrix).
 Atomic radii         : SMD-Coulomb.
 Polarization charges : Total charges.
 Charge compensation  : None.
 Solution method      : On-the-fly selection.
 Cavity type          : VdW (van der Waals Surface) (Alpha=1.000).
 Cavity algorithm     : GePol (No added spheres)
                        Default sphere list used, NSphG=   77.
                        Lebedev-Laikov grids with approx.  5.0 points / Ang**2.
                        Smoothing algorithm: Karplus/York (Gamma=1.0000).
                        Polarization charges: spherical gaussians, with
                                              point-specific exponents (IZeta= 3).
                        Self-potential: point-specific (ISelfS= 7).
                        Self-field    : sphere-specific E.n sum rule (ISelfD= 2).
 Solvent              : Dichloromethane, Eps=   8.930000 Eps(inf)=   2.028346
 ------------------------------------------------------------------------------
 GePol: Number of generator spheres                  =      77
 GePol: Total number of spheres                      =      77
 GePol: Number of exposed spheres                    =      77 (100.00%)
 GePol: Number of points                             =    5282
 GePol: Average weight of points                     =       0.12
 GePol: Minimum weight of points                     =   0.12D-10
 GePol: Maximum weight of points                     =    0.21501
 GePol: Number of points with low weight             =     384
 GePol: Fraction of low-weight points (<1% of avg)   =       7.27%
 GePol: Cavity surface area                          =    612.129 Ang**2
 GePol: Cavity volume                                =    640.304 Ang**3
 ------------------------------------------------------------------------------
 Atomic radii for non-electrostatic terms: SMD-CDS.
 ------------------------------------------------------------------------------
 PCM non-electrostatic energy =        -0.0093220882 Hartrees.
 Nuclear repulsion after PCM non-electrostatic terms =     6563.3183316089 Hartrees.
 Leave Link  301 at Sun Mar  3 12:46:54 2024, MaxMem=  2147483648 cpu:         0.5
 (Enter /cluster/apps/gaussian/g09/l302.exe)
 NPDir=0 NMtPBC=     1 NCelOv=     1 NCel=       1 NClECP=     1 NCelD=      1
         NCelK=      1 NCelE2=     1 NClLst=     1 CellRange=     0.0.
 One-electron integrals computed using PRISM.
   1 Symmetry operations used in ECPInt.
 ECPInt:  NShTT=  178503 NPrTT=  546514 LenC2=  139768 LenP2D=  283476.
 LDataN:  DoStor=T MaxTD1= 7 Len=  274
 NBasis=  1489 RedAO= T EigKep=  4.93D-06  NBF=  1489
 NBsUse=  1489 1.00D-06 EigRej= -1.00D+00 NBFU=  1489
 Precomputing XC quadrature grid using
 IXCGrd= 4 IRadAn=           5 IRanWt=          -1 IRanGd=           0 AccXCQ= 0.00D+00.
 Defaulting to unpruned grid for atomic number  46.
 Generated NRdTot=       0 NPtTot=           0 NUsed=           0 NTot=          32
 NSgBfM=  1544  1560  1564  1568  1572 MxSgAt=    77 MxSgA2=    77.
 Leave Link  302 at Sun Mar  3 12:47:00 2024, MaxMem=  2147483648 cpu:        48.1
 (Enter /cluster/apps/gaussian/g09/l303.exe)
 DipDrv:  MaxL=1.
 Leave Link  303 at Sun Mar  3 12:47:00 2024, MaxMem=  2147483648 cpu:         2.5
 (Enter /cluster/apps/gaussian/g09/l401.exe)
 ExpMin= 3.70D-02 ExpMax= 6.95D+04 ExpMxC= 2.37D+03 IAcc=3 IRadAn=         5 AccDes= 0.00D+00
 Harris functional with IExCor= 4639 and IRadAn=       5 diagonalized for initial guess.
 HarFok:  IExCor= 4639 AccDes= 0.00D+00 IRadAn=         5 IDoV= 1 UseB2=F ITyADJ=14
 ICtDFT=  3500011 ScaDFX=  1.000000  1.000000  1.000000  1.000000
 Defaulting to unpruned grid for atomic number  46.
 Defaulting to unpruned grid for atomic number  46.
 Defaulting to unpruned grid for atomic number  46.
 Defaulting to unpruned grid for atomic number  46.
 Defaulting to unpruned grid for atomic number  46.
 Defaulting to unpruned grid for atomic number  46.
 Defaulting to unpruned grid for atomic number  46.
 Defaulting to unpruned grid for atomic number  46.
 FoFCou: FMM=F IPFlag=           0 FMFlag=      100000 FMFlg1=        2001
         NFxFlg=           0 DoJE=T BraDBF=F KetDBF=T FulRan=T
         wScrn=  0.000000 ICntrl=     500 IOpCl=  0 I1Cent=   200000004 NGrid=           0
         NMat0=    1 NMatS0=      1 NMatT0=    0 NMatD0=    1 NMtDS0=    0 NMtDT0=    0
 Petite list used in FoFCou.
 Harris En= -2999.32784071067    
 JPrj=0 DoOrth=F DoCkMO=F.
 Leave Link  401 at Sun Mar  3 12:47:27 2024, MaxMem=  2147483648 cpu:       210.0
 (Enter /cluster/apps/gaussian/g09/l502.exe)
 Closed shell SCF:
 Using DIIS extrapolation, IDIIS=  1040.
 Integral symmetry usage will be decided dynamically.
 IVT=     8612750 IEndB=     8612750 NGot=  2147483648 MDV=  2141745329
 LenX=  2141745329 LenY=  2138887539
 Requested convergence on RMS density matrix=1.00D-08 within 128 cycles.
 Requested convergence on MAX density matrix=1.00D-06.
 Requested convergence on             energy=1.00D-06.
 No special actions if energy rises.
 Fock matrices will be formed incrementally for  20 cycles.

 Cycle   1  Pass 1  IDiag  1:
 FoFJK:  IHMeth= 1 ICntrl=       0 DoSepK=T KAlg= 0 I1Cent=   0 FoldK=F
 IRaf=         1 NMat=   1 IRICut=       1 DoRegI=T DoRafI=F ISym2E= 0.
 FoFCou: FMM=T IPFlag=           0 FMFlag=      100000 FMFlg1=        2001
         NFxFlg=           0 DoJE=T BraDBF=F KetDBF=F FulRan=T
         wScrn=  0.000000 ICntrl=     500 IOpCl=  0 I1Cent=           0 NGrid=           0
         NMat0=    1 NMatS0=      1 NMatT0=    0 NMatD0=    1 NMtDS0=    0 NMtDT0=    0
 Symmetry not used in FoFCou.
 FMM levels:  10  Number of levels for PrismC:   9
 Defaulting to unpruned grid for atomic number  46.
 Defaulting to unpruned grid for atomic number  46.
 Defaulting to unpruned grid for atomic number  46.
 Defaulting to unpruned grid for atomic number  46.
 Defaulting to unpruned grid for atomic number  46.
 Defaulting to unpruned grid for atomic number  46.
 Defaulting to unpruned grid for atomic number  46.
 Defaulting to unpruned grid for atomic number  46.
 Inv3:  Mode=1 IEnd=    83698572.
 Iteration    1 A*A^-1 deviation from unit magnitude is 8.44D-15 for   5282.
 Iteration    1 A*A^-1 deviation from orthogonality  is 5.53D-15 for   5280   4772.
 Iteration    1 A^-1*A deviation from unit magnitude is 8.66D-15 for   5282.
 Iteration    1 A^-1*A deviation from orthogonality  is 1.99D-10 for   4309   3663.
 Iteration    2 A*A^-1 deviation from unit magnitude is 4.55D-15 for   2644.
 Iteration    2 A*A^-1 deviation from orthogonality  is 4.62D-15 for   4247     80.
 Iteration    2 A^-1*A deviation from unit magnitude is 9.99D-16 for   1875.
 Iteration    2 A^-1*A deviation from orthogonality  is 4.11D-16 for   2703    263.
 E= -3088.00595337326    
 DIIS: error= 6.58D-02 at cycle   1 NSaved=   1.
 NSaved= 1 IEnMin= 1 EnMin= -3088.00595337326     IErMin= 1 ErrMin= 6.58D-02
 ErrMax= 6.58D-02  0.00D+00 EMaxC= 1.00D-01 BMatC= 1.30D+01 BMatP= 1.30D+01
 IDIUse=3 WtCom= 3.42D-01 WtEn= 6.58D-01
 Coeff-Com:  0.100D+01
 Coeff-En:   0.100D+01
 Coeff:      0.100D+01
 Gap=     0.527 Goal=   None    Shift=    0.000
 GapD=    0.527 DampG=2.000 DampE=0.250 DampFc=0.5000 IDamp=-1.
 Damping current iteration by 5.00D-01
 RMSDP=2.97D-02 MaxDP=1.13D+01              OVMax= 9.81D-01

 Cycle   2  Pass 1  IDiag  1:
 RMSU=  1.48D-02    CP:  9.38D-01
 E= -3088.51111236932     Delta-E=       -0.505158996064 Rises=F Damp=T
 DIIS: error= 2.04D-02 at cycle   2 NSaved=   2.
 NSaved= 2 IEnMin= 2 EnMin= -3088.51111236932     IErMin= 2 ErrMin= 2.04D-02
 ErrMax= 2.04D-02  0.00D+00 EMaxC= 1.00D-01 BMatC= 3.64D+00 BMatP= 1.30D+01
 IDIUse=3 WtCom= 7.96D-01 WtEn= 2.04D-01
 Coeff-Com:  0.204D+00 0.796D+00
 Coeff-En:   0.479D+00 0.521D+00
 Coeff:      0.260D+00 0.740D+00
 Gap=     0.684 Goal=   None    Shift=    0.000
 RMSDP=1.54D-02 MaxDP=4.94D+00 DE=-5.05D-01 OVMax= 5.68D-01

 Cycle   3  Pass 1  IDiag  1:
 RMSU=  4.23D-03    CP:  3.49D-01  9.48D-02
 E= -3095.29932648827     Delta-E=       -6.788214118949 Rises=F Damp=F
 DIIS: error= 1.76D-02 at cycle   3 NSaved=   3.
 NSaved= 3 IEnMin= 3 EnMin= -3095.29932648827     IErMin= 3 ErrMin= 1.76D-02
 ErrMax= 1.76D-02  0.00D+00 EMaxC= 1.00D-01 BMatC= 1.66D+00 BMatP= 3.64D+00
 IDIUse=3 WtCom= 8.24D-01 WtEn= 1.76D-01
 Coeff-Com:  0.806D-01 0.309D+00 0.611D+00
 Coeff-En:   0.000D+00 0.000D+00 0.100D+01
 Coeff:      0.664D-01 0.254D+00 0.679D+00
 Gap=     0.338 Goal=   None    Shift=    0.000
 RMSDP=2.46D-03 MaxDP=5.79D-01 DE=-6.79D+00 OVMax= 5.34D-01

 Cycle   4  Pass 1  IDiag  1:
 RMSU=  2.35D-03    CP:  3.78D-01  1.01D-01  8.47D-01
 E= -3096.11114372258     Delta-E=       -0.811817234307 Rises=F Damp=F
 DIIS: error= 1.38D-02 at cycle   4 NSaved=   4.
 NSaved= 4 IEnMin= 4 EnMin= -3096.11114372258     IErMin= 4 ErrMin= 1.38D-02
 ErrMax= 1.38D-02  0.00D+00 EMaxC= 1.00D-01 BMatC= 9.87D-01 BMatP= 1.66D+00
 IDIUse=3 WtCom= 8.62D-01 WtEn= 1.38D-01
 Coeff-Com:  0.450D-02 0.705D-01 0.411D+00 0.514D+00
 Coeff-En:   0.000D+00 0.000D+00 0.337D+00 0.663D+00
 Coeff:      0.387D-02 0.607D-01 0.400D+00 0.535D+00
 Gap=     0.260 Goal=   None    Shift=    0.000
 RMSDP=1.91D-03 MaxDP=6.25D-01 DE=-8.12D-01 OVMax= 3.35D-01

 Cycle   5  Pass 1  IDiag  1:
 RMSU=  1.09D-03    CP:  3.34D-01  6.09D-02  9.11D-01  4.30D-01
 E= -3096.83778106909     Delta-E=       -0.726637346508 Rises=F Damp=F
 DIIS: error= 3.67D-03 at cycle   5 NSaved=   5.
 NSaved= 5 IEnMin= 5 EnMin= -3096.83778106909     IErMin= 5 ErrMin= 3.67D-03
 ErrMax= 3.67D-03  0.00D+00 EMaxC= 1.00D-01 BMatC= 1.16D-01 BMatP= 9.87D-01
 IDIUse=3 WtCom= 9.63D-01 WtEn= 3.67D-02
 Coeff-Com:  0.660D-02-0.660D-02 0.124D+00 0.285D+00 0.591D+00
 Coeff-En:   0.000D+00 0.000D+00 0.000D+00 0.471D-01 0.953D+00
 Coeff:      0.636D-02-0.636D-02 0.120D+00 0.276D+00 0.604D+00
 Gap=     0.262 Goal=   None    Shift=    0.000
 RMSDP=5.91D-04 MaxDP=1.06D-01 DE=-7.27D-01 OVMax= 8.48D-02

 Cycle   6  Pass 1  IDiag  1:
 RMSU=  4.15D-04    CP:  3.28D-01  5.71D-02  9.07D-01  5.50D-01  7.28D-01
 E= -3096.92844297778     Delta-E=       -0.090661908696 Rises=F Damp=F
 DIIS: error= 1.23D-03 at cycle   6 NSaved=   6.
 NSaved= 6 IEnMin= 6 EnMin= -3096.92844297778     IErMin= 6 ErrMin= 1.23D-03
 ErrMax= 1.23D-03  0.00D+00 EMaxC= 1.00D-01 BMatC= 7.91D-03 BMatP= 1.16D-01
 IDIUse=3 WtCom= 9.88D-01 WtEn= 1.23D-02
 Coeff-Com:  0.516D-02-0.134D-01-0.563D-02 0.261D-01 0.224D+00 0.764D+00
 Coeff-En:   0.000D+00 0.000D+00 0.000D+00 0.000D+00 0.000D+00 0.100D+01
 Coeff:      0.510D-02-0.133D-01-0.556D-02 0.258D-01 0.221D+00 0.767D+00
 Gap=     0.258 Goal=   None    Shift=    0.000
 RMSDP=1.66D-04 MaxDP=3.23D-02 DE=-9.07D-02 OVMax= 2.82D-02

 Cycle   7  Pass 1  IDiag  1:
 RMSU=  1.05D-04    CP:  3.25D-01  5.30D-02  9.05D-01  5.29D-01  8.20D-01
                    CP:  9.81D-01
 E= -3096.93582820419     Delta-E=       -0.007385226403 Rises=F Damp=F
 DIIS: error= 4.56D-04 at cycle   7 NSaved=   7.
 NSaved= 7 IEnMin= 7 EnMin= -3096.93582820419     IErMin= 7 ErrMin= 4.56D-04
 ErrMax= 4.56D-04  0.00D+00 EMaxC= 1.00D-01 BMatC= 1.20D-03 BMatP= 7.91D-03
 IDIUse=3 WtCom= 9.95D-01 WtEn= 4.56D-03
 Coeff-Com:  0.102D-02-0.258D-02-0.914D-02-0.163D-01 0.988D-02 0.309D+00
 Coeff-Com:  0.709D+00
 Coeff-En:   0.000D+00 0.000D+00 0.000D+00 0.000D+00 0.000D+00 0.000D+00
 Coeff-En:   0.100D+01
 Coeff:      0.101D-02-0.257D-02-0.910D-02-0.163D-01 0.983D-02 0.307D+00
 Coeff:      0.710D+00
 Gap=     0.258 Goal=   None    Shift=    0.000
 RMSDP=4.70D-05 MaxDP=1.16D-02 DE=-7.39D-03 OVMax= 8.08D-03

 Cycle   8  Pass 1  IDiag  1:
 RMSU=  3.83D-05    CP:  3.24D-01  5.23D-02  9.05D-01  5.28D-01  8.28D-01
                    CP:  1.02D+00  1.14D+00
 E= -3096.93695981018     Delta-E=       -0.001131605995 Rises=F Damp=F
 DIIS: error= 1.80D-04 at cycle   8 NSaved=   8.
 NSaved= 8 IEnMin= 8 EnMin= -3096.93695981018     IErMin= 8 ErrMin= 1.80D-04
 ErrMax= 1.80D-04  0.00D+00 EMaxC= 1.00D-01 BMatC= 1.85D-04 BMatP= 1.20D-03
 IDIUse=3 WtCom= 9.98D-01 WtEn= 1.80D-03
 Coeff-Com: -0.450D-03 0.994D-03-0.325D-02-0.954D-02-0.202D-01 0.657D-01
 Coeff-Com:  0.324D+00 0.643D+00
 Coeff-En:   0.000D+00 0.000D+00 0.000D+00 0.000D+00 0.000D+00 0.000D+00
 Coeff-En:   0.000D+00 0.100D+01
 Coeff:     -0.450D-03 0.992D-03-0.324D-02-0.953D-02-0.201D-01 0.656D-01
 Coeff:      0.323D+00 0.643D+00
 Gap=     0.258 Goal=   None    Shift=    0.000
 RMSDP=2.55D-05 MaxDP=3.66D-03 DE=-1.13D-03 OVMax= 5.50D-03

 Cycle   9  Pass 1  IDiag  1:
 RMSU=  1.89D-05    CP:  3.24D-01  5.24D-02  9.05D-01  5.30D-01  8.20D-01
                    CP:  1.05D+00  1.19D+00  1.07D+00
 E= -3096.93720070732     Delta-E=       -0.000240897140 Rises=F Damp=F
 DIIS: error= 6.37D-05 at cycle   9 NSaved=   9.
 NSaved= 9 IEnMin= 9 EnMin= -3096.93720070732     IErMin= 9 ErrMin= 6.37D-05
 ErrMax= 6.37D-05  0.00D+00 EMaxC= 1.00D-01 BMatC= 1.49D-05 BMatP= 1.85D-04
 IDIUse=1 WtCom= 1.00D+00 WtEn= 0.00D+00
 Coeff-Com: -0.397D-03 0.360D-03-0.781D-03-0.489D-03-0.550D-02-0.250D-01
 Coeff-Com: -0.194D-01 0.119D+00 0.933D+00
 Coeff:     -0.397D-03 0.360D-03-0.781D-03-0.489D-03-0.550D-02-0.250D-01
 Coeff:     -0.194D-01 0.119D+00 0.933D+00
 Gap=     0.258 Goal=   None    Shift=    0.000
 RMSDP=1.47D-05 MaxDP=2.51D-03 DE=-2.41D-04 OVMax= 4.38D-03

 Cycle  10  Pass 1  IDiag  1:
 RMSU=  8.43D-06    CP:  3.24D-01  5.25D-02  9.04D-01  5.30D-01  8.21D-01
                    CP:  1.05D+00  1.24D+00  1.27D+00  1.35D+00
 E= -3096.93726347823     Delta-E=       -0.000062770907 Rises=F Damp=F
 DIIS: error= 2.74D-05 at cycle  10 NSaved=  10.
 NSaved=10 IEnMin=10 EnMin= -3096.93726347823     IErMin=10 ErrMin= 2.74D-05
 ErrMax= 2.74D-05  0.00D+00 EMaxC= 1.00D-01 BMatC= 3.62D-06 BMatP= 1.49D-05
 IDIUse=1 WtCom= 1.00D+00 WtEn= 0.00D+00
 Coeff-Com: -0.289D-04-0.704D-04-0.836D-04 0.898D-03 0.163D-03-0.191D-01
 Coeff-Com: -0.546D-01-0.632D-01 0.280D+00 0.856D+00
 Coeff:     -0.289D-04-0.704D-04-0.836D-04 0.898D-03 0.163D-03-0.191D-01
 Coeff:     -0.546D-01-0.632D-01 0.280D+00 0.856D+00
 Gap=     0.258 Goal=   None    Shift=    0.000
 RMSDP=7.35D-06 MaxDP=1.20D-03 DE=-6.28D-05 OVMax= 2.36D-03

 Cycle  11  Pass 1  IDiag  1:
 RMSU=  3.09D-06    CP:  3.24D-01  5.25D-02  9.04D-01  5.31D-01  8.22D-01
                    CP:  1.05D+00  1.27D+00  1.35D+00  1.61D+00  1.24D+00
 E= -3096.93727732912     Delta-E=       -0.000013850889 Rises=F Damp=F
 DIIS: error= 1.28D-05 at cycle  11 NSaved=  11.
 NSaved=11 IEnMin=11 EnMin= -3096.93727732912     IErMin=11 ErrMin= 1.28D-05
 ErrMax= 1.28D-05  0.00D+00 EMaxC= 1.00D-01 BMatC= 1.17D-06 BMatP= 3.62D-06
 IDIUse=1 WtCom= 1.00D+00 WtEn= 0.00D+00
 Coeff-Com:  0.843D-04-0.866D-04 0.228D-03 0.445D-03-0.444D-03-0.542D-02
 Coeff-Com: -0.191D-01-0.352D-01-0.705D-01 0.339D+00 0.791D+00
 Coeff:      0.843D-04-0.866D-04 0.228D-03 0.445D-03-0.444D-03-0.542D-02
 Coeff:     -0.191D-01-0.352D-01-0.705D-01 0.339D+00 0.791D+00
 Gap=     0.258 Goal=   None    Shift=    0.000
 RMSDP=3.41D-06 MaxDP=6.17D-04 DE=-1.39D-05 OVMax= 1.03D-03

 Cycle  12  Pass 1  IDiag  1:
 RMSU=  1.39D-06    CP:  3.24D-01  5.25D-02  9.04D-01  5.31D-01  8.22D-01
                    CP:  1.05D+00  1.28D+00  1.39D+00  1.70D+00  1.41D+00
                    CP:  1.32D+00
 E= -3096.93728024266     Delta-E=       -0.000002913544 Rises=F Damp=F
 DIIS: error= 8.13D-06 at cycle  12 NSaved=  12.
 NSaved=12 IEnMin=12 EnMin= -3096.93728024266     IErMin=12 ErrMin= 8.13D-06
 ErrMax= 8.13D-06  0.00D+00 EMaxC= 1.00D-01 BMatC= 3.06D-07 BMatP= 1.17D-06
 IDIUse=1 WtCom= 1.00D+00 WtEn= 0.00D+00
 Coeff-Com:  0.436D-04-0.216D-04 0.207D-03 0.293D-04-0.123D-02-0.414D-03
 Coeff-Com:  0.323D-02 0.101D-01-0.641D-01-0.551D-01 0.265D+00 0.842D+00
 Coeff:      0.436D-04-0.216D-04 0.207D-03 0.293D-04-0.123D-02-0.414D-03
 Coeff:      0.323D-02 0.101D-01-0.641D-01-0.551D-01 0.265D+00 0.842D+00
 Gap=     0.258 Goal=   None    Shift=    0.000
 RMSDP=1.42D-06 MaxDP=2.61D-04 DE=-2.91D-06 OVMax= 4.07D-04

 Cycle  13  Pass 1  IDiag  1:
 RMSU=  6.08D-07    CP:  3.24D-01  5.25D-02  9.04D-01  5.31D-01  8.22D-01
                    CP:  1.05D+00  1.28D+00  1.40D+00  1.72D+00  1.46D+00
                    CP:  1.56D+00  1.34D+00
 E= -3096.93728090530     Delta-E=       -0.000000662634 Rises=F Damp=F
 DIIS: error= 3.27D-06 at cycle  13 NSaved=  13.
 NSaved=13 IEnMin=13 EnMin= -3096.93728090530     IErMin=13 ErrMin= 3.27D-06
 ErrMax= 3.27D-06  0.00D+00 EMaxC= 1.00D-01 BMatC= 4.24D-08 BMatP= 3.06D-07
 IDIUse=1 WtCom= 1.00D+00 WtEn= 0.00D+00
 Coeff-Com:  0.242D-05 0.465D-05 0.574D-04-0.351D-04-0.341D-03 0.835D-03
 Coeff-Com:  0.443D-02 0.104D-01 0.576D-03-0.911D-01-0.101D+00 0.284D+00
 Coeff-Com:  0.892D+00
 Coeff:      0.242D-05 0.465D-05 0.574D-04-0.351D-04-0.341D-03 0.835D-03
 Coeff:      0.443D-02 0.104D-01 0.576D-03-0.911D-01-0.101D+00 0.284D+00
 Coeff:      0.892D+00
 Gap=     0.258 Goal=   None    Shift=    0.000
 RMSDP=6.78D-07 MaxDP=9.42D-05 DE=-6.63D-07 OVMax= 2.25D-04

 Cycle  14  Pass 1  IDiag  1:
 RMSU=  3.03D-07    CP:  3.24D-01  5.25D-02  9.04D-01  5.31D-01  8.22D-01
                    CP:  1.05D+00  1.28D+00  1.40D+00  1.73D+00  1.47D+00
                    CP:  1.67D+00  1.58D+00  1.42D+00
 E= -3096.93728105290     Delta-E=       -0.000000147598 Rises=F Damp=F
 DIIS: error= 1.07D-06 at cycle  14 NSaved=  14.
 NSaved=14 IEnMin=14 EnMin= -3096.93728105290     IErMin=14 ErrMin= 1.07D-06
 ErrMax= 1.07D-06  0.00D+00 EMaxC= 1.00D-01 BMatC= 9.39D-09 BMatP= 4.24D-08
 IDIUse=1 WtCom= 1.00D+00 WtEn= 0.00D+00
 Coeff-Com: -0.536D-05 0.496D-05-0.158D-04-0.198D-04 0.159D-03 0.609D-03
 Coeff-Com:  0.116D-02 0.117D-02 0.979D-02-0.237D-01-0.807D-01-0.324D-01
 Coeff-Com:  0.358D+00 0.766D+00
 Coeff:     -0.536D-05 0.496D-05-0.158D-04-0.198D-04 0.159D-03 0.609D-03
 Coeff:      0.116D-02 0.117D-02 0.979D-02-0.237D-01-0.807D-01-0.324D-01
 Coeff:      0.358D+00 0.766D+00
 Gap=     0.258 Goal=   None    Shift=    0.000
 RMSDP=2.48D-07 MaxDP=3.07D-05 DE=-1.48D-07 OVMax= 7.97D-05

 Cycle  15  Pass 1  IDiag  1:
 RMSU=  1.23D-07    CP:  3.24D-01  5.25D-02  9.04D-01  5.31D-01  8.21D-01
                    CP:  1.05D+00  1.28D+00  1.40D+00  1.73D+00  1.47D+00
                    CP:  1.70D+00  1.66D+00  1.66D+00  1.25D+00
 E= -3096.93728107616     Delta-E=       -0.000000023267 Rises=F Damp=F
 DIIS: error= 5.28D-07 at cycle  15 NSaved=  15.
 NSaved=15 IEnMin=15 EnMin= -3096.93728107616     IErMin=15 ErrMin= 5.28D-07
 ErrMax= 5.28D-07  0.00D+00 EMaxC= 1.00D-01 BMatC= 1.87D-09 BMatP= 9.39D-09
 IDIUse=1 WtCom= 1.00D+00 WtEn= 0.00D+00
 Coeff-Com: -0.251D-05 0.107D-05-0.214D-04-0.879D-05 0.153D-03 0.227D-03
 Coeff-Com: -0.100D-03-0.154D-02 0.216D-02 0.542D-02-0.141D-01-0.553D-01
 Coeff-Com: -0.128D-01 0.307D+00 0.769D+00
 Coeff:     -0.251D-05 0.107D-05-0.214D-04-0.879D-05 0.153D-03 0.227D-03
 Coeff:     -0.100D-03-0.154D-02 0.216D-02 0.542D-02-0.141D-01-0.553D-01
 Coeff:     -0.128D-01 0.307D+00 0.769D+00
 Gap=     0.258 Goal=   None    Shift=    0.000
 RMSDP=1.03D-07 MaxDP=1.16D-05 DE=-2.33D-08 OVMax= 3.70D-05

 Cycle  16  Pass 1  IDiag  1:
 RMSU=  5.19D-08    CP:  3.24D-01  5.25D-02  9.04D-01  5.31D-01  8.21D-01
                    CP:  1.05D+00  1.28D+00  1.40D+00  1.73D+00  1.47D+00
                    CP:  1.70D+00  1.67D+00  1.74D+00  1.44D+00  1.29D+00
 E= -3096.93728107983     Delta-E=       -0.000000003663 Rises=F Damp=F
 DIIS: error= 2.07D-07 at cycle  16 NSaved=  16.
 NSaved=16 IEnMin=16 EnMin= -3096.93728107983     IErMin=16 ErrMin= 2.07D-07
 ErrMax= 2.07D-07  0.00D+00 EMaxC= 1.00D-01 BMatC= 3.01D-10 BMatP= 1.87D-09
 IDIUse=1 WtCom= 1.00D+00 WtEn= 0.00D+00
 Coeff-Com: -0.290D-06-0.190D-06-0.818D-05-0.384D-05 0.278D-04 0.855D-05
 Coeff-Com: -0.124D-03-0.695D-03-0.124D-02 0.523D-02 0.750D-02-0.108D-01
 Coeff-Com: -0.668D-01-0.395D-01 0.278D+00 0.829D+00
 Coeff:     -0.290D-06-0.190D-06-0.818D-05-0.384D-05 0.278D-04 0.855D-05
 Coeff:     -0.124D-03-0.695D-03-0.124D-02 0.523D-02 0.750D-02-0.108D-01
 Coeff:     -0.668D-01-0.395D-01 0.278D+00 0.829D+00
 Gap=     0.258 Goal=   None    Shift=    0.000
 RMSDP=5.24D-08 MaxDP=5.97D-06 DE=-3.66D-09 OVMax= 1.80D-05

 Cycle  17  Pass 1  IDiag  1:
 RMSU=  2.63D-08    CP:  3.24D-01  5.25D-02  9.04D-01  5.31D-01  8.21D-01
                    CP:  1.06D+00  1.28D+00  1.40D+00  1.73D+00  1.47D+00
                    CP:  1.70D+00  1.68D+00  1.77D+00  1.52D+00  1.49D+00
                    CP:  1.30D+00
 E= -3096.93728108104     Delta-E=       -0.000000001213 Rises=F Damp=F
 DIIS: error= 9.07D-08 at cycle  17 NSaved=  17.
 NSaved=17 IEnMin=17 EnMin= -3096.93728108104     IErMin=17 ErrMin= 9.07D-08
 ErrMax= 9.07D-08  0.00D+00 EMaxC= 1.00D-01 BMatC= 3.72D-11 BMatP= 3.01D-10
 IDIUse=1 WtCom= 1.00D+00 WtEn= 0.00D+00
 Coeff-Com:  0.492D-07 0.665D-07 0.325D-06-0.621D-06-0.201D-04-0.379D-04
 Coeff-Com: -0.800D-05 0.860D-04-0.621D-03 0.508D-03 0.388D-02 0.529D-02
 Coeff-Com: -0.159D-01-0.620D-01-0.501D-01 0.223D+00 0.896D+00
 Coeff:      0.492D-07 0.665D-07 0.325D-06-0.621D-06-0.201D-04-0.379D-04
 Coeff:     -0.800D-05 0.860D-04-0.621D-03 0.508D-03 0.388D-02 0.529D-02
 Coeff:     -0.159D-01-0.620D-01-0.501D-01 0.223D+00 0.896D+00
 Gap=     0.258 Goal=   None    Shift=    0.000
 RMSDP=2.97D-08 MaxDP=2.88D-06 DE=-1.21D-09 OVMax= 7.10D-06

 Cycle  18  Pass 1  IDiag  1:
 RMSU=  1.71D-08    CP:  3.24D-01  5.25D-02  9.04D-01  5.31D-01  8.21D-01
                    CP:  1.06D+00  1.28D+00  1.40D+00  1.73D+00  1.47D+00
                    CP:  1.70D+00  1.68D+00  1.78D+00  1.54D+00  1.57D+00
                    CP:  1.53D+00  1.53D+00
 E= -3096.93728108113     Delta-E=       -0.000000000091 Rises=F Damp=F
 DIIS: error= 4.05D-08 at cycle  18 NSaved=  18.
 NSaved=18 IEnMin=18 EnMin= -3096.93728108113     IErMin=18 ErrMin= 4.05D-08
 ErrMax= 4.05D-08  0.00D+00 EMaxC= 1.00D-01 BMatC= 8.02D-12 BMatP= 3.72D-11
 IDIUse=1 WtCom= 1.00D+00 WtEn= 0.00D+00
 Coeff-Com:  0.325D-07 0.937D-07 0.148D-05 0.837D-06-0.101D-04-0.196D-04
 Coeff-Com: -0.934D-05 0.960D-04-0.796D-04-0.233D-03 0.827D-03 0.361D-02
 Coeff-Com:  0.247D-02-0.202D-01-0.570D-01-0.289D-01 0.331D+00 0.769D+00
 Coeff:      0.325D-07 0.937D-07 0.148D-05 0.837D-06-0.101D-04-0.196D-04
 Coeff:     -0.934D-05 0.960D-04-0.796D-04-0.233D-03 0.827D-03 0.361D-02
 Coeff:      0.247D-02-0.202D-01-0.570D-01-0.289D-01 0.331D+00 0.769D+00
 Gap=     0.258 Goal=   None    Shift=    0.000
 RMSDP=2.08D-08 MaxDP=1.77D-06 DE=-9.09D-11 OVMax= 2.58D-06

 Cycle  19  Pass 1  IDiag  1:
 RMSU=  1.16D-08    CP:  3.24D-01  5.25D-02  9.04D-01  5.31D-01  8.21D-01
                    CP:  1.06D+00  1.28D+00  1.40D+00  1.73D+00  1.47D+00
                    CP:  1.70D+00  1.68D+00  1.78D+00  1.54D+00  1.58D+00
                    CP:  1.62D+00  1.94D+00  1.69D+00
 E= -3096.93728108191     Delta-E=       -0.000000000777 Rises=F Damp=F
 DIIS: error= 4.01D-08 at cycle  19 NSaved=  19.
 NSaved=19 IEnMin=19 EnMin= -3096.93728108191     IErMin=19 ErrMin= 4.01D-08
 ErrMax= 4.01D-08  0.00D+00 EMaxC= 1.00D-01 BMatC= 1.66D-12 BMatP= 8.02D-12
 IDIUse=1 WtCom= 1.00D+00 WtEn= 0.00D+00
 Coeff-Com: -0.121D-07 0.302D-07 0.469D-06 0.227D-06 0.566D-06 0.391D-06
 Coeff-Com: -0.123D-05 0.177D-04 0.601D-04-0.116D-03-0.361D-03 0.343D-03
 Coeff-Com:  0.314D-02 0.251D-02-0.101D-01-0.436D-01-0.303D-01 0.250D+00
 Coeff-Com:  0.829D+00
 Coeff:     -0.121D-07 0.302D-07 0.469D-06 0.227D-06 0.566D-06 0.391D-06
 Coeff:     -0.123D-05 0.177D-04 0.601D-04-0.116D-03-0.361D-03 0.343D-03
 Coeff:      0.314D-02 0.251D-02-0.101D-01-0.436D-01-0.303D-01 0.250D+00
 Coeff:      0.829D+00
 Gap=     0.258 Goal=   None    Shift=    0.000
 RMSDP=2.92D-08 MaxDP=2.15D-06 DE=-7.77D-10 OVMax= 1.14D-06

 Cycle  20  Pass 1  IDiag  1:
 RMSU=  1.20D-08    CP:  3.24D-01  5.25D-02  9.04D-01  5.31D-01  8.21D-01
                    CP:  1.06D+00  1.28D+00  1.40D+00  1.73D+00  1.47D+00
                    CP:  1.70D+00  1.68D+00  1.78D+00  1.54D+00  1.59D+00
                    CP:  1.68D+00  2.35D+00  2.67D+00  2.49D+00
 E= -3096.93728108158     Delta-E=        0.000000000327 Rises=F Damp=F
 DIIS: error= 7.21D-08 at cycle  20 NSaved=  20.
 NSaved=20 IEnMin=19 EnMin= -3096.93728108191     IErMin=19 ErrMin= 4.01D-08
 ErrMax= 7.21D-08  0.00D+00 EMaxC= 1.00D-01 BMatC= 1.36D-12 BMatP= 1.66D-12
 IDIUse=1 WtCom= 1.00D+00 WtEn= 0.00D+00
 Coeff-Com: -0.741D-08 0.178D-07 0.323D-06 0.182D-06 0.987D-06 0.813D-06
 Coeff-Com: -0.210D-05 0.614D-05 0.390D-04-0.507D-04-0.255D-03 0.162D-03
 Coeff-Com:  0.208D-02 0.218D-02-0.542D-02-0.299D-01-0.314D-01 0.152D+00
 Coeff-Com:  0.611D+00 0.299D+00
 Coeff:     -0.741D-08 0.178D-07 0.323D-06 0.182D-06 0.987D-06 0.813D-06
 Coeff:     -0.210D-05 0.614D-05 0.390D-04-0.507D-04-0.255D-03 0.162D-03
 Coeff:      0.208D-02 0.218D-02-0.542D-02-0.299D-01-0.314D-01 0.152D+00
 Coeff:      0.611D+00 0.299D+00
 Gap=     0.258 Goal=   None    Shift=    0.000
 RMSDP=1.62D-08 MaxDP=1.14D-06 DE= 3.27D-10 OVMax= 1.78D-07

 Cycle  21  Pass 1  IDiag  1:
 Restarting incremental Fock formation.
 E= -3096.93728108256     Delta-E=       -0.000000000982 Rises=F Damp=F
 DIIS: error= 1.18D-07 at cycle  21 NSaved=  20.
 NSaved=20 IEnMin=20 EnMin= -3096.93728108256     IErMin=18 ErrMin= 4.01D-08
 ErrMax= 1.18D-07  0.00D+00 EMaxC= 1.00D-01 BMatC= 1.11D-11 BMatP= 1.36D-12
 IDIUse=1 WtCom= 1.00D+00 WtEn= 0.00D+00
 Coeff-Com:  0.432D-08 0.203D-06 0.136D-06 0.151D-05 0.169D-05-0.225D-05
 Coeff-Com: -0.323D-05 0.265D-04-0.823D-05-0.212D-03-0.320D-04 0.142D-02
 Coeff-Com:  0.259D-02-0.118D-02-0.216D-01-0.427D-01 0.732D-01 0.476D+00
 Coeff-Com:  0.370D+00 0.143D+00
 Coeff:      0.432D-08 0.203D-06 0.136D-06 0.151D-05 0.169D-05-0.225D-05
 Coeff:     -0.323D-05 0.265D-04-0.823D-05-0.212D-03-0.320D-04 0.142D-02
 Coeff:      0.259D-02-0.118D-02-0.216D-01-0.427D-01 0.732D-01 0.476D+00
 Coeff:      0.370D+00 0.143D+00
 Gap=     0.258 Goal=   None    Shift=    0.000
 RMSDP=1.76D-08 MaxDP=1.35D-06 DE=-9.82D-10 OVMax= 1.76D-07

 Cycle  22  Pass 1  IDiag  1:
 RMSU=  1.76D-08    CP:  1.00D+00
 E= -3096.93728108291     Delta-E=       -0.000000000351 Rises=F Damp=F
 DIIS: error= 1.21D-07 at cycle  22 NSaved=  20.
 NSaved=20 IEnMin=20 EnMin= -3096.93728108291     IErMin=17 ErrMin= 4.01D-08
 ErrMax= 1.21D-07  0.00D+00 EMaxC= 1.00D-01 BMatC= 9.05D-12 BMatP= 1.36D-12
 IDIUse=1 WtCom= 1.00D+00 WtEn= 0.00D+00
 Coeff-Com:  0.670D-07 0.328D-07 0.111D-05 0.140D-05-0.792D-06-0.351D-05
 Coeff-Com:  0.156D-04 0.220D-05-0.147D-03-0.121D-03 0.672D-03 0.186D-02
 Coeff-Com:  0.110D-02-0.973D-02-0.304D-01 0.124D-01 0.245D+00 0.512D+00
 Coeff-Com: -0.121D+01 0.148D+01
 Coeff:      0.670D-07 0.328D-07 0.111D-05 0.140D-05-0.792D-06-0.351D-05
 Coeff:      0.156D-04 0.220D-05-0.147D-03-0.121D-03 0.672D-03 0.186D-02
 Coeff:      0.110D-02-0.973D-02-0.304D-01 0.124D-01 0.245D+00 0.512D+00
 Coeff:     -0.121D+01 0.148D+01
 Gap=     0.258 Goal=   None    Shift=    0.000
 RMSDP=2.45D-08 MaxDP=1.42D-06 DE=-3.51D-10 OVMax= 2.71D-07

 Cycle  23  Pass 1  IDiag  1:
 RMSU=  1.84D-08    CP:  1.00D+00  1.92D+00
 E= -3096.93728108264     Delta-E=        0.000000000267 Rises=F Damp=F
 DIIS: error= 1.26D-07 at cycle  23 NSaved=  20.
 NSaved=20 IEnMin=19 EnMin= -3096.93728108291     IErMin=16 ErrMin= 4.01D-08
 ErrMax= 1.26D-07  0.00D+00 EMaxC= 1.00D-01 BMatC= 7.89D-12 BMatP= 1.36D-12
 IDIUse=1 WtCom= 1.00D+00 WtEn= 0.00D+00
 Coeff-Com: -0.271D-08 0.102D-05 0.137D-05-0.861D-06-0.577D-05 0.981D-05
 Coeff-Com:  0.194D-04-0.983D-04-0.160D-03 0.337D-03 0.156D-02 0.187D-02
 Coeff-Com: -0.578D-02-0.258D-01-0.266D-02 0.179D+00 0.554D+00-0.100D+01
 Coeff-Com:  0.436D+00 0.867D+00
 Coeff:     -0.271D-08 0.102D-05 0.137D-05-0.861D-06-0.577D-05 0.981D-05
 Coeff:      0.194D-04-0.983D-04-0.160D-03 0.337D-03 0.156D-02 0.187D-02
 Coeff:     -0.578D-02-0.258D-01-0.266D-02 0.179D+00 0.554D+00-0.100D+01
 Coeff:      0.436D+00 0.867D+00
 Gap=     0.258 Goal=   None    Shift=    0.000
 RMSDP=1.88D-08 MaxDP=1.17D-06 DE= 2.67D-10 OVMax= 1.45D-07

 Cycle  24  Pass 1  IDiag  1:
 RMSU=  1.40D-08    CP:  1.00D+00  2.50D+00  1.40D+00
 E= -3096.93728108293     Delta-E=       -0.000000000284 Rises=F Damp=F
 DIIS: error= 1.36D-07 at cycle  24 NSaved=  20.
 NSaved=20 IEnMin=20 EnMin= -3096.93728108293     IErMin=15 ErrMin= 4.01D-08
 ErrMax= 1.36D-07  0.00D+00 EMaxC= 1.00D-01 BMatC= 7.62D-12 BMatP= 1.36D-12
 IDIUse=1 WtCom= 1.00D+00 WtEn= 0.00D+00
 Coeff-Com:  0.100D-05 0.139D-05-0.758D-06-0.576D-05 0.889D-05 0.180D-04
 Coeff-Com: -0.944D-04-0.150D-03 0.333D-03 0.153D-02 0.184D-02-0.572D-02
 Coeff-Com: -0.258D-01-0.359D-02 0.177D+00 0.563D+00-0.797D+00 0.147D+00
 Coeff-Com:  0.502D+00 0.440D+00
 Coeff:      0.100D-05 0.139D-05-0.758D-06-0.576D-05 0.889D-05 0.180D-04
 Coeff:     -0.944D-04-0.150D-03 0.333D-03 0.153D-02 0.184D-02-0.572D-02
 Coeff:     -0.258D-01-0.359D-02 0.177D+00 0.563D+00-0.797D+00 0.147D+00
 Coeff:      0.502D+00 0.440D+00
 Gap=     0.258 Goal=   None    Shift=    0.000
 RMSDP=9.28D-09 MaxDP=6.62D-07 DE=-2.84D-10 OVMax= 3.15D-08

 Error on total polarization charges =  0.05176
 SCF Done:  E(RwB97XD) =  -3096.93728108     A.U. after   24 cycles
            NFock= 24  Conv=0.93D-08     -V/T= 2.0301
 KE= 3.006321772908D+03 PE=-2.039075997188D+04 EE= 7.724182586278D+03
 SMD-CDS (non-electrostatic) energy       (kcal/mol) =      -5.85
 (included in total energy above)
 Leave Link  502 at Sun Mar  3 14:55:28 2024, MaxMem=  2147483648 cpu:     60741.3
 (Enter /cluster/apps/gaussian/g09/l601.exe)
 Copying SCF densities to generalized density rwf, IOpCl= 0 IROHF=0.

 **********************************************************************

            Population analysis using the SCF density.

 **********************************************************************

 Orbital symmetries:
       Occupied  (A) (A) (A) (A) (A) (A) (A) (A) (A) (A) (A) (A)
                 (A) (A) (A) (A) (A) (A) (A) (A) (A) (A) (A) (A)
                 (A) (A) (A) (A) (A) (A) (A) (A) (A) (A) (A) (A)
                 (A) (A) (A) (A) (A) (A) (A) (A) (A) (A) (A) (A)
                 (A) (A) (A) (A) (A) (A) (A) (A) (A) (A) (A) (A)
                 (A) (A) (A) (A) (A) (A) (A) (A) (A) (A) (A) (A)
                 (A) (A) (A) (A) (A) (A) (A) (A) (A) (A) (A) (A)
                 (A) (A) (A) (A) (A) (A) (A) (A) (A) (A) (A) (A)
                 (A) (A) (A) (A) (A) (A) (A) (A) (A) (A) (A) (A)
                 (A) (A) (A) (A) (A) (A) (A) (A) (A) (A) (A) (A)
                 (A) (A) (A) (A) (A) (A) (A) (A) (A) (A) (A) (A)
                 (A) (A) (A) (A) (A) (A) (A) (A) (A) (A) (A) (A)
                 (A) (A) (A) (A) (A) (A) (A) (A) (A) (A) (A) (A)
                 (A) (A) (A) (A) (A) (A) (A) (A) (A) (A) (A) (A)
                 (A)
       Virtual   (A) (A) (A) (A) (A) (A) (A) (A) (A) (A) (A) (A)
                 (A) (A) (A) (A) (A) (A) (A) (A) (A) (A) (A) (A)
                 (A) (A) (A) (A) (A) (A) (A) (A) (A) (A) (A) (A)
                 (A) (A) (A) (A) (A) (A) (A) (A) (A) (A) (A) (A)
                 (A) (A) (A) (A) (A) (A) (A) (A) (A) (A) (A) (A)
                 (A) (A) (A) (A) (A) (A) (A) (A) (A) (A) (A) (A)
                 (A) (A) (A) (A) (A) (A) (A) (A) (A) (A) (A) (A)
                 (A) (A) (A) (A) (A) (A) (A) (A) (A) (A) (A) (A)
                 (A) (A) (A) (A) (A) (A) (A) (A) (A) (A) (A) (A)
                 (A) (A) (A) (A) (A) (A) (A) (A) (A) (A) (A) (A)
                 (A) (A) (A) (A) (A) (A) (A) (A) (A) (A) (A) (A)
                 (A) (A) (A) (A) (A) (A) (A) (A) (A) (A) (A) (A)
                 (A) (A) (A) (A) (A) (A) (A) (A) (A) (A) (A) (A)
                 (A) (A) (A) (A) (A) (A) (A) (A) (A) (A) (A) (A)
                 (A) (A) (A) (A) (A) (A) (A) (A) (A) (A) (A) (A)
                 (A) (A) (A) (A) (A) (A) (A) (A) (A) (A) (A) (A)
                 (A) (A) (A) (A) (A) (A) (A) (A) (A) (A) (A) (A)
                 (A) (A) (A) (A) (A) (A) (A) (A) (A) (A) (A) (A)
                 (A) (A) (A) (A) (A) (A) (A) (A) (A) (A) (A) (A)
                 (A) (A) (A) (A) (A) (A) (A) (A) (A) (A) (A) (A)
                 (A) (A) (A) (A) (A) (A) (A) (A) (A) (A) (A) (A)
                 (A) (A) (A) (A) (A) (A) (A) (A) (A) (A) (A) (A)
                 (A) (A) (A) (A) (A) (A) (A) (A) (A) (A) (A) (A)
                 (A) (A) (A) (A) (A) (A) (A) (A) (A) (A) (A) (A)
                 (A) (A) (A) (A) (A) (A) (A) (A) (A) (A) (A) (A)
                 (A) (A) (A) (A) (A) (A) (A) (A) (A) (A) (A) (A)
                 (A) (A) (A) (A) (A) (A) (A) (A) (A) (A) (A) (A)
                 (A) (A) (A) (A) (A) (A) (A) (A) (A) (A) (A) (A)
                 (A) (A) (A) (A) (A) (A) (A) (A) (A) (A) (A) (A)
                 (A) (A) (A) (A) (A) (A) (A) (A) (A) (A) (A) (A)
                 (A) (A) (A) (A) (A) (A) (A) (A) (A) (A) (A) (A)
                 (A) (A) (A) (A) (A) (A) (A) (A) (A) (A) (A) (A)
                 (A) (A) (A) (A) (A) (A) (A) (A) (A) (A) (A) (A)
                 (A) (A) (A) (A) (A) (A) (A) (A) (A) (A) (A) (A)
                 (A) (A) (A) (A) (A) (A) (A) (A) (A) (A) (A) (A)
                 (A) (A) (A) (A) (A) (A) (A) (A) (A) (A) (A) (A)
                 (A) (A) (A) (A) (A) (A) (A) (A) (A) (A) (A) (A)
                 (A) (A) (A) (A) (A) (A) (A) (A) (A) (A) (A) (A)
                 (A) (A) (A) (A) (A) (A) (A) (A) (A) (A) (A) (A)
                 (A) (A) (A) (A) (A) (A) (A) (A) (A) (A) (A) (A)
                 (A) (A) (A) (A) (A) (A) (A) (A) (A) (A) (A) (A)
                 (A) (A) (A) (A) (A) (A) (A) (A) (A) (A) (A) (A)
                 (A) (A) (A) (A) (A) (A) (A) (A) (A) (A) (A) (A)
                 (A) (A) (A) (A) (A) (A) (A) (A) (A) (A) (A) (A)
                 (A) (A) (A) (A) (A) (A) (A) (A) (A) (A) (A) (A)
                 (A) (A) (A) (A) (A) (A) (A) (A) (A) (A) (A) (A)
                 (A) (A) (A) (A) (A) (A) (A) (A) (A) (A) (A) (A)
                 (A) (A) (A) (A) (A) (A) (A) (A) (A) (A) (A) (A)
                 (A) (A) (A) (A) (A) (A) (A) (A) (A) (A) (A) (A)
                 (A) (A) (A) (A) (A) (A) (A) (A) (A) (A) (A) (A)
                 (A) (A) (A) (A) (A) (A) (A) (A) (A) (A) (A) (A)
                 (A) (A) (A) (A) (A) (A) (A) (A) (A) (A) (A) (A)
                 (A) (A) (A) (A) (A) (A) (A) (A) (A) (A) (A) (A)
                 (A) (A) (A) (A) (A) (A) (A) (A) (A) (A) (A) (A)
                 (A) (A) (A) (A) (A) (A) (A) (A) (A) (A) (A) (A)
                 (A) (A) (A) (A) (A) (A) (A) (A) (A) (A) (A) (A)
                 (A) (A) (A) (A) (A) (A) (A) (A) (A) (A) (A) (A)
                 (A) (A) (A) (A) (A) (A) (A) (A) (A) (A) (A) (A)
                 (A) (A) (A) (A) (A) (A) (A) (A) (A) (A) (A) (A)
                 (A) (A) (A) (A) (A) (A) (A) (A) (A) (A) (A) (A)
                 (A) (A) (A) (A) (A) (A) (A) (A) (A) (A) (A) (A)
                 (A) (A) (A) (A) (A) (A) (A) (A) (A) (A) (A) (A)
                 (A) (A) (A) (A) (A) (A) (A) (A) (A) (A) (A) (A)
                 (A) (A) (A) (A) (A) (A) (A) (A) (A) (A) (A) (A)
                 (A) (A) (A) (A) (A) (A) (A) (A) (A) (A) (A) (A)
                 (A) (A) (A) (A) (A) (A) (A) (A) (A) (A) (A) (A)
                 (A) (A) (A) (A) (A) (A) (A) (A) (A) (A) (A) (A)
                 (A) (A) (A) (A) (A) (A) (A) (A) (A) (A) (A) (A)
                 (A) (A) (A) (A) (A) (A) (A) (A) (A) (A) (A) (A)
                 (A) (A) (A) (A) (A) (A) (A) (A) (A) (A) (A) (A)
                 (A) (A) (A) (A) (A) (A) (A) (A) (A) (A) (A) (A)
                 (A) (A) (A) (A) (A) (A) (A) (A) (A) (A) (A) (A)
                 (A) (A) (A) (A) (A) (A) (A) (A) (A) (A) (A) (A)
                 (A) (A) (A) (A) (A) (A) (A) (A) (A) (A) (A) (A)
                 (A) (A) (A) (A) (A) (A) (A) (A) (A) (A) (A) (A)
                 (A) (A) (A) (A) (A) (A) (A) (A) (A) (A) (A) (A)
                 (A) (A) (A) (A) (A) (A) (A) (A) (A) (A) (A) (A)
                 (A) (A) (A) (A) (A) (A) (A) (A) (A) (A) (A) (A)
                 (A) (A) (A) (A) (A) (A) (A) (A) (A) (A) (A) (A)
                 (A) (A) (A) (A) (A) (A) (A) (A) (A) (A) (A) (A)
                 (A) (A) (A) (A) (A) (A) (A) (A) (A) (A) (A) (A)
                 (A) (A) (A) (A) (A) (A) (A) (A) (A) (A) (A) (A)
                 (A) (A) (A) (A) (A) (A) (A) (A) (A) (A) (A) (A)
                 (A) (A) (A) (A) (A) (A) (A) (A) (A) (A) (A) (A)
                 (A) (A) (A) (A) (A) (A) (A) (A) (A) (A) (A) (A)
                 (A) (A) (A) (A) (A) (A) (A) (A) (A) (A) (A) (A)
                 (A) (A) (A) (A) (A) (A) (A) (A) (A) (A) (A) (A)
                 (A) (A) (A) (A) (A) (A) (A) (A) (A) (A) (A) (A)
                 (A) (A) (A) (A) (A) (A) (A) (A) (A) (A) (A) (A)
                 (A) (A) (A) (A) (A) (A) (A) (A) (A) (A) (A) (A)
                 (A) (A) (A) (A) (A) (A) (A) (A) (A) (A) (A) (A)
                 (A) (A) (A) (A) (A) (A) (A) (A) (A) (A) (A) (A)
                 (A) (A) (A) (A) (A) (A) (A) (A) (A) (A) (A) (A)
                 (A) (A) (A) (A) (A) (A) (A) (A) (A) (A) (A) (A)
                 (A) (A) (A) (A) (A) (A) (A) (A) (A) (A) (A) (A)
                 (A) (A) (A) (A) (A) (A) (A) (A) (A) (A) (A) (A)
                 (A) (A) (A) (A) (A) (A) (A) (A) (A) (A) (A) (A)
                 (A) (A) (A) (A) (A) (A) (A) (A) (A) (A) (A) (A)
                 (A) (A) (A) (A) (A) (A) (A) (A) (A) (A) (A) (A)
                 (A) (A) (A) (A) (A) (A) (A) (A) (A) (A) (A) (A)
                 (A) (A) (A) (A) (A) (A) (A) (A) (A) (A) (A) (A)
                 (A) (A) (A) (A) (A) (A) (A) (A) (A) (A) (A) (A)
                 (A) (A) (A) (A) (A) (A) (A) (A) (A) (A) (A) (A)
                 (A) (A) (A) (A) (A) (A) (A) (A) (A) (A) (A) (A)
                 (A) (A) (A) (A) (A) (A) (A) (A) (A) (A) (A) (A)
                 (A) (A) (A) (A) (A) (A) (A) (A) (A) (A) (A) (A)
                 (A) (A) (A) (A) (A) (A) (A) (A) (A) (A) (A) (A)
                 (A) (A) (A) (A) (A) (A) (A) (A) (A) (A) (A) (A)
                 (A) (A) (A) (A) (A) (A) (A) (A) (A) (A) (A) (A)
                 (A) (A) (A) (A) (A) (A) (A) (A) (A) (A) (A) (A)
 The electronic state is 1-A.
 Alpha  occ. eigenvalues -- -101.70576 -89.23337 -77.21952 -24.84718 -24.84706
 Alpha  occ. eigenvalues --  -24.84367 -24.84072 -19.27970 -19.25605 -19.25510
 Alpha  occ. eigenvalues --  -14.49165 -10.39659 -10.39555 -10.39391 -10.39367
 Alpha  occ. eigenvalues --  -10.37240 -10.35583 -10.34651 -10.34431 -10.32610
 Alpha  occ. eigenvalues --  -10.32150 -10.30671 -10.30428 -10.30426 -10.29248
 Alpha  occ. eigenvalues --  -10.29195 -10.29076 -10.28847 -10.27318 -10.27158
 Alpha  occ. eigenvalues --  -10.27030 -10.26977 -10.26967 -10.26923 -10.26839
 Alpha  occ. eigenvalues --  -10.26814 -10.26804 -10.26672 -10.26450  -9.59131
 Alpha  occ. eigenvalues --   -8.23477  -7.33813  -7.32897  -7.32862  -6.66450
 Alpha  occ. eigenvalues --   -6.18363  -6.18201  -6.18175  -4.81120  -4.81110
 Alpha  occ. eigenvalues --   -4.80817  -3.53401  -2.22251  -2.21224  -2.19433
 Alpha  occ. eigenvalues --   -1.37392  -1.36479  -1.35555  -1.35065  -1.22536
 Alpha  occ. eigenvalues --   -1.17539  -1.11716  -1.05769  -0.98271  -0.97558
 Alpha  occ. eigenvalues --   -0.96309  -0.93560  -0.91798  -0.90404  -0.89952
 Alpha  occ. eigenvalues --   -0.87028  -0.85382  -0.84398  -0.84068  -0.83473
 Alpha  occ. eigenvalues --   -0.82319  -0.79507  -0.78339  -0.78135  -0.77590
 Alpha  occ. eigenvalues --   -0.77193  -0.76547  -0.75693  -0.73808  -0.71652
 Alpha  occ. eigenvalues --   -0.70781  -0.69673  -0.69465  -0.67874  -0.66890
 Alpha  occ. eigenvalues --   -0.66686  -0.66147  -0.64181  -0.63791  -0.63776
 Alpha  occ. eigenvalues --   -0.63166  -0.62036  -0.61678  -0.60634  -0.60244
 Alpha  occ. eigenvalues --   -0.59767  -0.58928  -0.58532  -0.57268  -0.56885
 Alpha  occ. eigenvalues --   -0.56249  -0.56152  -0.56088  -0.55657  -0.55326
 Alpha  occ. eigenvalues --   -0.55083  -0.54170  -0.53550  -0.53416  -0.53105
 Alpha  occ. eigenvalues --   -0.52645  -0.52643  -0.52420  -0.52150  -0.51765
 Alpha  occ. eigenvalues --   -0.51659  -0.51038  -0.50784  -0.50488  -0.49893
 Alpha  occ. eigenvalues --   -0.49284  -0.48789  -0.48490  -0.47803  -0.47479
 Alpha  occ. eigenvalues --   -0.47127  -0.46383  -0.46132  -0.45882  -0.45483
 Alpha  occ. eigenvalues --   -0.45342  -0.44687  -0.44402  -0.44342  -0.43957
 Alpha  occ. eigenvalues --   -0.43847  -0.43054  -0.42683  -0.42602  -0.42505
 Alpha  occ. eigenvalues --   -0.42134  -0.41652  -0.41529  -0.41214  -0.41000
 Alpha  occ. eigenvalues --   -0.40784  -0.40443  -0.40327  -0.39909  -0.38690
 Alpha  occ. eigenvalues --   -0.38560  -0.37686  -0.36534  -0.36438  -0.36023
 Alpha  occ. eigenvalues --   -0.35462  -0.34532  -0.32313  -0.32147  -0.31927
 Alpha  occ. eigenvalues --   -0.31511  -0.31014  -0.28280  -0.24558
 Alpha virt. eigenvalues --    0.01273   0.02706   0.04325   0.07041   0.07313
 Alpha virt. eigenvalues --    0.07896   0.08895   0.09094   0.09646   0.10747
 Alpha virt. eigenvalues --    0.11370   0.11959   0.12830   0.13065   0.13680
 Alpha virt. eigenvalues --    0.13999   0.14044   0.14630   0.14751   0.14989
 Alpha virt. eigenvalues --    0.15168   0.15385   0.15510   0.15978   0.16123
 Alpha virt. eigenvalues --    0.16412   0.16828   0.16922   0.17726   0.17925
 Alpha virt. eigenvalues --    0.18242   0.18635   0.18780   0.18814   0.19179
 Alpha virt. eigenvalues --    0.19433   0.19706   0.20035   0.20264   0.20537
 Alpha virt. eigenvalues --    0.20739   0.20761   0.21009   0.21218   0.21627
 Alpha virt. eigenvalues --    0.22006   0.22249   0.22480   0.22567   0.22869
 Alpha virt. eigenvalues --    0.23076   0.23523   0.23685   0.23987   0.24309
 Alpha virt. eigenvalues --    0.24784   0.24929   0.25291   0.25616   0.25881
 Alpha virt. eigenvalues --    0.26218   0.26650   0.26887   0.26926   0.27319
 Alpha virt. eigenvalues --    0.27688   0.28087   0.28300   0.28513   0.28540
 Alpha virt. eigenvalues --    0.28814   0.28865   0.29363   0.29814   0.29940
 Alpha virt. eigenvalues --    0.30067   0.30501   0.30821   0.30929   0.31388
 Alpha virt. eigenvalues --    0.31571   0.31822   0.31894   0.32137   0.32362
 Alpha virt. eigenvalues --    0.32522   0.32836   0.33183   0.33546   0.33691
 Alpha virt. eigenvalues --    0.34003   0.34463   0.34589   0.34753   0.35137
 Alpha virt. eigenvalues --    0.35355   0.36002   0.36126   0.36348   0.36460
 Alpha virt. eigenvalues --    0.36861   0.37282   0.37976   0.38205   0.38454
 Alpha virt. eigenvalues --    0.38611   0.38848   0.39363   0.39766   0.39928
 Alpha virt. eigenvalues --    0.40057   0.40510   0.40652   0.41380   0.41469
 Alpha virt. eigenvalues --    0.41637   0.41969   0.42292   0.42390   0.42794
 Alpha virt. eigenvalues --    0.43343   0.43471   0.43549   0.43885   0.44173
 Alpha virt. eigenvalues --    0.44591   0.44772   0.44967   0.45344   0.45540
 Alpha virt. eigenvalues --    0.45888   0.46086   0.46344   0.46603   0.47001
 Alpha virt. eigenvalues --    0.47118   0.47445   0.47571   0.48183   0.48279
 Alpha virt. eigenvalues --    0.48464   0.48706   0.49024   0.49272   0.49415
 Alpha virt. eigenvalues --    0.49754   0.49839   0.49969   0.50079   0.50472
 Alpha virt. eigenvalues --    0.50860   0.50953   0.51126   0.51366   0.51622
 Alpha virt. eigenvalues --    0.51880   0.52189   0.52297   0.52498   0.52681
 Alpha virt. eigenvalues --    0.52773   0.53000   0.53062   0.53260   0.53521
 Alpha virt. eigenvalues --    0.53568   0.53770   0.54040   0.54180   0.54573
 Alpha virt. eigenvalues --    0.54680   0.54794   0.55032   0.55295   0.55345
 Alpha virt. eigenvalues --    0.55618   0.55874   0.55984   0.56219   0.56360
 Alpha virt. eigenvalues --    0.56608   0.56777   0.57105   0.57284   0.57426
 Alpha virt. eigenvalues --    0.57518   0.57780   0.57986   0.58185   0.58887
 Alpha virt. eigenvalues --    0.59089   0.59690   0.59841   0.60225   0.60414
 Alpha virt. eigenvalues --    0.60709   0.60957   0.61246   0.61456   0.61748
 Alpha virt. eigenvalues --    0.61909   0.62086   0.62419   0.62744   0.63297
 Alpha virt. eigenvalues --    0.63488   0.63827   0.64215   0.64488   0.64772
 Alpha virt. eigenvalues --    0.65413   0.65572   0.65717   0.66128   0.66650
 Alpha virt. eigenvalues --    0.66736   0.67139   0.67415   0.67508   0.68428
 Alpha virt. eigenvalues --    0.68569   0.69132   0.69434   0.69749   0.69974
 Alpha virt. eigenvalues --    0.70183   0.70660   0.70830   0.70938   0.71486
 Alpha virt. eigenvalues --    0.71571   0.71911   0.72021   0.72303   0.72995
 Alpha virt. eigenvalues --    0.73454   0.73693   0.74352   0.74562   0.74854
 Alpha virt. eigenvalues --    0.75344   0.75769   0.75870   0.76229   0.76467
 Alpha virt. eigenvalues --    0.76780   0.76820   0.77400   0.77892   0.78056
 Alpha virt. eigenvalues --    0.78609   0.78715   0.79304   0.79432   0.79824
 Alpha virt. eigenvalues --    0.80246   0.80555   0.81238   0.81333   0.81691
 Alpha virt. eigenvalues --    0.81902   0.82182   0.82693   0.83277   0.83395
 Alpha virt. eigenvalues --    0.83699   0.84062   0.84484   0.84981   0.85412
 Alpha virt. eigenvalues --    0.85685   0.85722   0.86307   0.86643   0.87021
 Alpha virt. eigenvalues --    0.87334   0.88029   0.88550   0.88566   0.89055
 Alpha virt. eigenvalues --    0.89431   0.89776   0.90326   0.90728   0.90998
 Alpha virt. eigenvalues --    0.91286   0.91928   0.92241   0.92686   0.92908
 Alpha virt. eigenvalues --    0.93466   0.93765   0.93912   0.94578   0.94895
 Alpha virt. eigenvalues --    0.95060   0.95387   0.95906   0.96012   0.96296
 Alpha virt. eigenvalues --    0.96540   0.96637   0.96916   0.97145   0.97627
 Alpha virt. eigenvalues --    0.98216   0.98796   0.99149   0.99384   1.00165
 Alpha virt. eigenvalues --    1.00438   1.00608   1.00892   1.01605   1.01867
 Alpha virt. eigenvalues --    1.02247   1.02930   1.03019   1.03241   1.03712
 Alpha virt. eigenvalues --    1.03784   1.04077   1.04547   1.04986   1.05404
 Alpha virt. eigenvalues --    1.05425   1.06272   1.06835   1.07106   1.07695
 Alpha virt. eigenvalues --    1.08045   1.08607   1.08759   1.09060   1.09775
 Alpha virt. eigenvalues --    1.09954   1.10386   1.11247   1.11319   1.11983
 Alpha virt. eigenvalues --    1.12084   1.12349   1.12694   1.13566   1.14247
 Alpha virt. eigenvalues --    1.14415   1.14812   1.15404   1.15738   1.16295
 Alpha virt. eigenvalues --    1.16492   1.17079   1.17359   1.17535   1.18036
 Alpha virt. eigenvalues --    1.18438   1.18558   1.18846   1.19194   1.19699
 Alpha virt. eigenvalues --    1.20153   1.20364   1.20445   1.21218   1.21434
 Alpha virt. eigenvalues --    1.21570   1.22706   1.23145   1.23223   1.23803
 Alpha virt. eigenvalues --    1.24058   1.24230   1.24646   1.24877   1.25187
 Alpha virt. eigenvalues --    1.25539   1.25903   1.26370   1.27249   1.27369
 Alpha virt. eigenvalues --    1.28398   1.28808   1.29075   1.29225   1.29562
 Alpha virt. eigenvalues --    1.29709   1.30213   1.30601   1.31076   1.31383
 Alpha virt. eigenvalues --    1.32290   1.32659   1.33195   1.33803   1.34273
[...]
 Alpha virt. eigenvalues --    2.28896   2.28939   2.29512   2.30111   2.30296
 Alpha virt. eigenvalues --    2.30391   2.30590   2.31244   2.31989   2.32295
 Alpha virt. eigenvalues --    2.33192   2.33493   2.33694   2.34340   2.34375
 Alpha virt. eigenvalues --    2.35171   2.35346   2.35601   2.36088   2.36717
 Alpha virt. eigenvalues --    2.36911   2.37852   2.38227   2.38456   2.38544
 Alpha virt. eigenvalues --    2.39082   2.39426   2.39666   2.40555   2.40731
 Alpha virt. eigenvalues --    2.41325   2.41583   2.41673   2.42147   2.43151
 Alpha virt. eigenvalues --    2.43302   2.43563   2.43934   2.44341   2.44459
 Alpha virt. eigenvalues --    2.45440   2.45631   2.45888   2.46180   2.46544
 Alpha virt. eigenvalues --    2.47336   2.48111   2.48181   2.48585   2.48956
 Alpha virt. eigenvalues --    2.49464   2.50406   2.50563   2.50716   2.50836
 Alpha virt. eigenvalues --    2.51097   2.52108   2.52836   2.53045   2.53374
 Alpha virt. eigenvalues --    2.53649   2.54164   2.54792   2.55044   2.55108
 Alpha virt. eigenvalues --    2.55326   2.55783   2.56001   2.56556   2.56700
 Alpha virt. eigenvalues --    2.57013   2.57531   2.57800   2.58420   2.58632
 Alpha virt. eigenvalues --    2.58964   2.59627   2.59832   2.60433   2.60813
 Alpha virt. eigenvalues --    2.60908   2.61296   2.61597   2.61897   2.62166
 Alpha virt. eigenvalues --    2.62857   2.63539   2.63828   2.64019   2.64068
 Alpha virt. eigenvalues --    2.64248   2.64495   2.64787   2.65046   2.65399
 Alpha virt. eigenvalues --    2.65736   2.66325   2.66655   2.66737   2.67649
 Alpha virt. eigenvalues --    2.67740   2.68189   2.68541   2.69143   2.69362
 Alpha virt. eigenvalues --    2.69708   2.69942   2.70161   2.71001   2.71116
 Alpha virt. eigenvalues --    2.71593   2.71684   2.72221   2.72350   2.72705
 Alpha virt. eigenvalues --    2.73441   2.73894   2.74014   2.74076   2.74419
 Alpha virt. eigenvalues --    2.74741   2.74816   2.75204   2.75431   2.75724
 Alpha virt. eigenvalues --    2.76287   2.76393   2.76680   2.77264   2.77394
 Alpha virt. eigenvalues --    2.77926   2.78465   2.78658   2.78773   2.79532
 Alpha virt. eigenvalues --    2.79627   2.80212   2.80554   2.80762   2.81035
 Alpha virt. eigenvalues --    2.81909   2.81960   2.82418   2.82799   2.83425
 Alpha virt. eigenvalues --    2.84050   2.84275   2.84816   2.85979   2.86177
 Alpha virt. eigenvalues --    2.86470   2.86807   2.87042   2.87513   2.88450
 Alpha virt. eigenvalues --    2.88663   2.89104   2.89224   2.89508   2.89769
 Alpha virt. eigenvalues --    2.90376   2.90715   2.91060   2.91498   2.91769
 Alpha virt. eigenvalues --    2.92339   2.92493   2.93179   2.93609   2.94035
 Alpha virt. eigenvalues --    2.94162   2.94760   2.95208   2.95338   2.95580
 Alpha virt. eigenvalues --    2.96006   2.96430   2.96836   2.97085   2.97147
 Alpha virt. eigenvalues --    2.97356   2.97820   2.98704   2.99200   2.99458
 Alpha virt. eigenvalues --    2.99712   3.00452   3.00825   3.01174   3.01552
 Alpha virt. eigenvalues --    3.02202   3.02723   3.03306   3.03901   3.04080
 Alpha virt. eigenvalues --    3.04335   3.04752   3.05496   3.05730   3.06059
 Alpha virt. eigenvalues --    3.06225   3.07086   3.07505   3.07779   3.08536
 Alpha virt. eigenvalues --    3.08847   3.09616   3.09907   3.10113   3.11792
 Alpha virt. eigenvalues --    3.11980   3.12062   3.13037   3.13456   3.13805
 Alpha virt. eigenvalues --    3.13979   3.14463   3.15485   3.15874   3.16047
 Alpha virt. eigenvalues --    3.16353   3.17012   3.17793   3.18034   3.18455
 Alpha virt. eigenvalues --    3.19188   3.19605   3.20311   3.20611   3.20996
 Alpha virt. eigenvalues --    3.21418   3.22282   3.22490   3.22643   3.22823
 Alpha virt. eigenvalues --    3.23364   3.24042   3.24379   3.24525   3.25203
 Alpha virt. eigenvalues --    3.25832   3.26197   3.26391   3.26547   3.27463
 Alpha virt. eigenvalues --    3.27827   3.28235   3.28647   3.28859   3.29357
 Alpha virt. eigenvalues --    3.29755   3.29865   3.30224   3.30531   3.30821
 Alpha virt. eigenvalues --    3.31400   3.31738   3.32252   3.32764   3.33042
 Alpha virt. eigenvalues --    3.33285   3.33569   3.34432   3.34643   3.34864
 Alpha virt. eigenvalues --    3.35237   3.35852   3.35992   3.36423   3.36923
 Alpha virt. eigenvalues --    3.37312   3.37644   3.38413   3.38766   3.39073
 Alpha virt. eigenvalues --    3.39615   3.40198   3.40413   3.40683   3.40901
 Alpha virt. eigenvalues --    3.41232   3.41251   3.42007   3.42443   3.42692
 Alpha virt. eigenvalues --    3.43586   3.43835   3.44403   3.44804   3.45192
 Alpha virt. eigenvalues --    3.45804   3.46352   3.46456   3.46809   3.47063
 Alpha virt. eigenvalues --    3.47722   3.47838   3.48409   3.48907   3.49098
 Alpha virt. eigenvalues --    3.49377   3.49693   3.50140   3.50319   3.50585
 Alpha virt. eigenvalues --    3.50788   3.51537   3.51908   3.51984   3.52150
 Alpha virt. eigenvalues --    3.53045   3.53196   3.53529   3.54122   3.54180
 Alpha virt. eigenvalues --    3.54332   3.54653   3.54859   3.55161   3.55494
 Alpha virt. eigenvalues --    3.56168   3.56253   3.56595   3.56652   3.57412
 Alpha virt. eigenvalues --    3.57691   3.58335   3.58508   3.58991   3.59104
 Alpha virt. eigenvalues --    3.59332   3.59557   3.60107   3.60727   3.61201
 Alpha virt. eigenvalues --    3.61380   3.61940   3.62287   3.62961   3.63052
 Alpha virt. eigenvalues --    3.63174   3.64377   3.64492   3.64861   3.65178
 Alpha virt. eigenvalues --    3.65484   3.65850   3.66360   3.66449   3.66857
 Alpha virt. eigenvalues --    3.67539   3.67931   3.68213   3.68692   3.69387
 Alpha virt. eigenvalues --    3.70291   3.70568   3.70636   3.70775   3.71715
 Alpha virt. eigenvalues --    3.71868   3.72946   3.73606   3.74209   3.74609
 Alpha virt. eigenvalues --    3.74953   3.75185   3.75995   3.76267   3.77091
 Alpha virt. eigenvalues --    3.77357   3.78059   3.78560   3.79536   3.79747
 Alpha virt. eigenvalues --    3.80288   3.80413   3.80832   3.81364   3.81841
 Alpha virt. eigenvalues --    3.81937   3.83086   3.83276   3.83700   3.83821
 Alpha virt. eigenvalues --    3.84695   3.84946   3.85171   3.85954   3.86674
 Alpha virt. eigenvalues --    3.87058   3.88030   3.89013   3.89553   3.90404
 Alpha virt. eigenvalues --    3.91064   3.91837   3.92989   3.93201   3.94361
 Alpha virt. eigenvalues --    3.94823   3.95745   3.96743   3.97635   3.98619
 Alpha virt. eigenvalues --    3.99935   4.03479   4.04365   4.04906   4.05702
 Alpha virt. eigenvalues --    4.07438   4.07973   4.08508   4.09119   4.09809
 Alpha virt. eigenvalues --    4.10577   4.10774   4.11671   4.12195   4.13336
 Alpha virt. eigenvalues --    4.13899   4.14132   4.14470   4.15377   4.15803
 Alpha virt. eigenvalues --    4.16178   4.17233   4.17694   4.18407   4.18663
 Alpha virt. eigenvalues --    4.19407   4.19840   4.20530   4.21399   4.21641
 Alpha virt. eigenvalues --    4.22126   4.22394   4.23045   4.23128   4.23555
 Alpha virt. eigenvalues --    4.23848   4.24098   4.24185   4.24788   4.25160
 Alpha virt. eigenvalues --    4.25468   4.25810   4.26164   4.26763   4.27135
 Alpha virt. eigenvalues --    4.27521   4.27758   4.29136   4.29474   4.30292
 Alpha virt. eigenvalues --    4.31249   4.32261   4.32503   4.33158   4.33927
 Alpha virt. eigenvalues --    4.34166   4.34532   4.35070   4.35612   4.37113
 Alpha virt. eigenvalues --    4.38099   4.38414   4.39419   4.40001   4.40433
 Alpha virt. eigenvalues --    4.40943   4.41743   4.42876   4.43057   4.43937
 Alpha virt. eigenvalues --    4.44298   4.44592   4.45736   4.46439   4.46988
 Alpha virt. eigenvalues --    4.47344   4.48123   4.48573   4.48760   4.51303
 Alpha virt. eigenvalues --    4.51871   4.51999   4.52938   4.53194   4.54379
 Alpha virt. eigenvalues --    4.55055   4.56133   4.57017   4.58101   4.58421
 Alpha virt. eigenvalues --    4.58773   4.59498   4.60331   4.61066   4.62792
 Alpha virt. eigenvalues --    4.63593   4.65214   4.66025   4.66660   4.67000
 Alpha virt. eigenvalues --    4.67960   4.68509   4.69063   4.69413   4.70335
 Alpha virt. eigenvalues --    4.70795   4.71167   4.72872   4.73494   4.75428
 Alpha virt. eigenvalues --    4.75713   4.77730   4.78076   4.80961   4.81259
 Alpha virt. eigenvalues --    4.82715   4.83912   4.86035   4.86464   4.86953
 Alpha virt. eigenvalues --    4.88905   4.89757   4.92428   4.92908   4.93288
 Alpha virt. eigenvalues --    4.94548   4.96299   4.96467   4.99519   5.00992
 Alpha virt. eigenvalues --    5.03327   5.04479   5.06106   5.06954   5.08759
 Alpha virt. eigenvalues --    5.09322   5.09942   5.11348   5.11962   5.12861
 Alpha virt. eigenvalues --    5.13966   5.14920   5.16705   5.16778   5.19504
 Alpha virt. eigenvalues --    5.22489   5.23530   5.23676   5.24402   5.25119
 Alpha virt. eigenvalues --    5.25764   5.27238   5.28452   5.30067   5.30265
 Alpha virt. eigenvalues --    5.32167   5.34003   5.36156   5.37578   5.40378
 Alpha virt. eigenvalues --    5.41481   5.44547   5.45197   5.47272   5.49415
 Alpha virt. eigenvalues --    5.52234   5.55472   5.58965   5.61397   5.61810
 Alpha virt. eigenvalues --    5.63873   5.65726   5.67943   5.69697   5.72305
 Alpha virt. eigenvalues --    5.74306   5.77343   5.83267   5.86668   5.87727
 Alpha virt. eigenvalues --    5.90570   6.02377   6.09005   6.12007   6.14966
 Alpha virt. eigenvalues --    6.42250   6.45200   6.47965   6.50290   6.54597
 Alpha virt. eigenvalues --    6.64411   6.74622   6.79879   6.88546   6.89493
 Alpha virt. eigenvalues --    6.90078   6.92959   6.93406   6.93556   6.94198
 Alpha virt. eigenvalues --    6.94370   6.94753   6.95244   6.95440   6.96485
 Alpha virt. eigenvalues --    6.96584   6.99830   7.00171   7.04033   7.05656
 Alpha virt. eigenvalues --    7.06123   7.08281   7.13249   7.14257   7.17718
 Alpha virt. eigenvalues --    7.23838   7.27886   7.28215   7.28953   7.36406
 Alpha virt. eigenvalues --    7.38964   7.41801   7.48823   7.49230   7.52256
 Alpha virt. eigenvalues --    7.57097   7.62686   7.74231   7.76917   8.01603
 Alpha virt. eigenvalues --    8.07078   8.10153   8.10754   8.38752   8.42113
 Alpha virt. eigenvalues --    8.44616   8.49114   8.55865   8.63889   8.65889
 Alpha virt. eigenvalues --    8.77948   8.80049   8.82848   8.87978   8.90623
 Alpha virt. eigenvalues --    8.94190   8.99335   9.02204   9.09738   9.10717
 Alpha virt. eigenvalues --    9.17131   9.18057   9.42122   9.48442   9.61074
 Alpha virt. eigenvalues --    9.86411  10.87214  10.95388  11.36745  15.73166
 Alpha virt. eigenvalues --   22.09313  22.42214  22.50046  22.52900  22.55019
 Alpha virt. eigenvalues --   22.55990  22.56999  22.58627  22.60425  22.61637
 Alpha virt. eigenvalues --   22.63575  22.66210  22.66579  22.69372  22.75679
 Alpha virt. eigenvalues --   22.76821  22.78731  22.82975  22.85354  22.89996
 Alpha virt. eigenvalues --   22.92736  22.98865  23.05791  23.06900  23.12646
 Alpha virt. eigenvalues --   23.22128  23.30706  23.51454  23.85715  25.71956
 Alpha virt. eigenvalues --   32.84651  32.95202  43.82703  44.07601  44.36005
 Alpha virt. eigenvalues --   57.30480  57.46283  57.55770  57.67547 107.20116
          Condensed to atoms (all electrons):
 Mulliken charges:
               1
     1  Pd  -0.106281
     2  C    0.107776
     3  C   -0.298134
     4  H    0.201802
     5  C   -0.209713
     6  H    0.148924
     7  C    0.376957
     8  C   -0.426715
     9  H    0.179273
    10  C   -0.014631
    11  C   -0.036863
    12  C    0.297437
    13  C    0.165769
    14  C    0.190204
    15  C    0.199519
    16  C   -0.043341
    17  N   -0.251419
    18  S    0.831601
    19  O   -0.494585
    20  O   -0.480839
    21  C   -0.171024
    22  Cl  -0.104490
    23  H    0.215804
    24  H    0.195087
    25  F   -0.193255
    26  F   -0.195628
    27  F   -0.197362
    28  F   -0.215528
    29  O   -0.303502
    30  C   -0.227379
    31  H    0.136905
    32  H    0.136208
    33  H    0.158369
    34  P    0.307507
    35  C   -0.125319
    36  C    0.199553
    37  C    0.118890
    38  C   -0.279083
    39  C   -0.297205
    40  H    0.087730
    41  C   -0.448692
    42  C   -0.455333
    43  C   -0.444744
    44  C   -0.488825
    45  C   -0.470543
    46  C   -0.452371
    47  C   -0.188322
    48  H    0.131366
    49  H    0.130107
    50  C   -0.186063
    51  H    0.141995
    52  H    0.105356
    53  H    0.156285
    54  H    0.137931
    55  H    0.137186
    56  H    0.138507
    57  H    0.139662
    58  H    0.106824
    59  H    0.125359
    60  H    0.136786
    61  H    0.149662
    62  H    0.142039
    63  H    0.168121
    64  H    0.143444
    65  H    0.145847
    66  H    0.157720
    67  H    0.155667
    68  H    0.142978
    69  H    0.148613
    70  H    0.150143
    71  C   -0.184596
    72  H    0.115668
    73  H    0.102404
    74  H    0.116504
    75  H    0.100441
    76  H    0.116116
    77  H    0.093744
 Sum of Mulliken charges =   0.00000
 Mulliken charges with hydrogens summed into heavy atoms:
               1
     1  Pd  -0.106281
     2  C    0.107776
     3  C   -0.096332
     5  C   -0.060789
     7  C    0.376957
     8  C   -0.247443
    10  C   -0.014631
    11  C   -0.036863
    12  C    0.297437
    13  C    0.165769
    14  C    0.190204
    15  C    0.199519
    16  C   -0.043341
    17  N   -0.251419
    18  S    0.831601
    19  O   -0.494585
    20  O   -0.480839
    21  C    0.239867
    22  Cl  -0.104490
    25  F   -0.193255
    26  F   -0.195628
    27  F   -0.197362
    28  F   -0.215528
    29  O   -0.303502
    30  C    0.204103
    34  P    0.307507
    35  C   -0.037589
    36  C    0.199553
    37  C    0.118890
    38  C   -0.017611
    39  C   -0.049854
    41  C   -0.017291
    42  C   -0.070341
    43  C   -0.032936
    44  C   -0.035221
    45  C   -0.011310
    46  C   -0.010636
    47  C    0.029750
    50  C    0.030883
    71  C    0.025263
 Electronic spatial extent (au):  <R**2>=          22035.7433
 Charge=              0.0000 electrons
 Dipole moment (field-independent basis, Debye):
    X=              8.5293    Y=              2.8791    Z=              5.0600  Tot=             10.3268
 Quadrupole moment (field-independent basis, Debye-Ang):
   XX=           -270.4416   YY=           -263.2752   ZZ=           -282.6037
   XY=            -24.2012   XZ=             -4.4439   YZ=             -2.5995
 Traceless Quadrupole moment (field-independent basis, Debye-Ang):
   XX=              1.6652   YY=              8.8317   ZZ=            -10.4969
   XY=            -24.2012   XZ=             -4.4439   YZ=             -2.5995
 Octapole moment (field-independent basis, Debye-Ang**2):
  XXX=             61.5158  YYY=            -36.9922  ZZZ=             40.6540  XYY=             -6.1149
  XXY=             27.6074  XXZ=             -3.9727  XZZ=              6.5287  YZZ=             48.7260
  YYZ=             11.1696  XYZ=             -1.9645
 Hexadecapole moment (field-independent basis, Debye-Ang**3):
 XXXX=         -16059.3810 YYYY=          -6862.8558 ZZZZ=          -5740.2591 XXXY=           -109.8378
 XXXZ=           -101.5373 YYYX=           -134.7179 YYYZ=            160.1167 ZZZX=            -94.2464
 ZZZY=             72.1022 XXYY=          -3852.4980 XXZZ=          -3685.7079 YYZZ=          -1903.2042
 XXYZ=             30.0654 YYXZ=           -105.8449 ZZXY=           -168.4632
 N-N= 6.563318331609D+03 E-N=-2.039075997191D+04  KE= 3.006321772908D+03
 No NMR shielding tensors so no spin-rotation constants.
 Leave Link  601 at Sun Mar  3 14:55:30 2024, MaxMem=  2147483648 cpu:        10.8
 (Enter /cluster/apps/gaussian/g09/l9999.exe)
 1\1\GINC-EU-G5-021-2\SP\RwB97XD\GenECP\C28H37Cl1F4N1O3P1Pd1S1\SROEDIGE
 R\03-Mar-2024\0\\#p sp geom=allcheck scrf(solvent=dichloromethane,smd)
  wb97xd genecp temperature=313 integral(grid=ultrafine)\\title\\0,1\Pd
 ,0,-0.1630534908,-0.6963758416,0.8336405766\C,0,1.5563162752,0.3352339
 06,1.2058498366\C,0,1.6520605896,0.8216167258,2.5209901335\H,0,1.17830
 00923,0.2840457466,3.342671163\C,0,2.3062654702,2.0245815482,2.7489663
 831\H,0,2.3412721437,2.4588385353,3.7503224981\C,0,2.9194560371,2.7317
 220089,1.6984703618\C,0,2.9485901791,2.1768357136,0.419180646\H,0,3.50
 42770232,2.6446397281,-0.3914472232\C,0,2.311581362,0.9496845852,0.182
 8066575\C,0,2.4932545739,0.0929308524,-0.9746342133\C,0,2.9502238604,0
 .4258163305,-2.2453658936\C,0,3.121471154,-0.5593655027,-3.2122807771\
 C,0,2.8177159831,-1.8881450422,-2.9115391125\C,0,2.3383956399,-2.24448
 83822,-1.6510884517\C,0,2.2078048863,-1.2618958867,-0.6710383994\N,0,1
 .7125253214,-1.4589650031,0.6296996659\S,0,2.4590279532,-2.4412310378,
 1.7566045008\O,0,1.636184752,-2.3517436585,2.9552046156\O,0,2.81722996
 03,-3.7135649953,1.1629532152\C,0,3.9947756223,-1.5889893479,2.1874897
 91\Cl,0,5.1301873171,-1.4844160215,0.8479802314\H,0,4.4234919611,-2.19
 13511152,3.0003340548\H,0,3.7317662594,-0.5839740249,2.5419102398\F,0,
 1.9833193156,-3.4973772254,-1.4462590369\F,0,2.938959082,-2.8087074051
 ,-3.8528274723\F,0,3.5469643278,-0.2434159183,-4.4246943451\F,0,3.2193
 163923,1.6888568302,-2.5679185314\O,0,3.4893311048,3.9106861574,2.0301
 770704\C,0,4.1447327439,4.6371626805,1.0303528373\H,0,3.464228223,4.89
 89083099,0.2001776687\H,0,5.0068216497,4.084109334,0.6165086884\H,0,4.
 5084108924,5.5613120801,1.4971887321\P,0,-2.1037063864,0.53901766,0.74
 26132127\C,0,-2.877654932,0.7962483854,2.4270340237\C,0,-1.7992979533,
 2.2058842108,-0.1033876207\C,0,-3.3964571061,-0.5035317757,-0.17330132
 \C,0,-1.8147428782,0.7930547406,3.5322036467\C,0,-3.875497947,1.939990
 8244,2.6311317505\H,0,-3.4419603411,-0.1479853758,2.5441738834\C,0,-3.
 0572979165,2.9575843942,-0.5367739047\C,0,-0.9913992635,3.0465307191,0
 .8926456724\C,0,-0.9068061966,1.9704439486,-1.3285613217\C,0,-3.040788
 2942,-0.5808945561,-1.6583901492\C,0,-3.2562344572,-1.913077126,0.4187
 485667\C,0,-4.8409924735,-0.0334136953,-0.0058084913\C,0,-2.4488199767
 ,0.751711216,4.9181458308\H,0,-1.1473023958,-0.0719586208,3.388722898\
 H,0,-1.1787538324,1.6897823196,3.4398707567\C,0,-4.508552535,1.8717402
 973,4.0191662691\H,0,-4.6601722471,1.9233938811,1.8622699064\H,0,-3.35
 83473461,2.907777978,2.5294659938\H,0,-3.7350380876,3.1747603638,0.298
 3164881\H,0,-2.7618191788,3.9225714798,-0.9816385295\H,0,-3.6196697485
 ,2.4080580836,-1.3051332745\H,0,-0.6728750531,3.9781389533,0.397177073
 8\H,0,-1.5714942307,3.3278790918,1.781520067\H,0,-0.08501979,2.5195715
 457,1.2233349599\H,0,-0.0064538819,1.3976845609,-1.0641178085\H,0,-0.5
 833522283,2.9475033527,-1.7238966791\H,0,-1.4252049616,1.4419512928,-2
 .1375944344\H,0,-3.2373460003,0.3635136115,-2.1847031347\H,0,-1.983466
 1585,-0.8513904017,-1.8070738733\H,0,-3.6573850205,-1.3587714583,-2.13
 80855551\H,0,-3.9929775089,-2.5852608885,-0.051794822\H,0,-2.252529008
 1,-2.3314546365,0.2321465865\H,0,-3.4314532584,-1.9392455064,1.5050752
 072\H,0,-5.5065969168,-0.697210363,-0.5826496989\H,0,-5.1711859696,-0.
 0794712431,1.0419782176\H,0,-4.9977377182,0.9897184487,-0.3728448373\C
 ,0,-3.452671749,1.8804028216,5.117307902\H,0,-1.662745954,0.7899574076
 ,5.6893316533\H,0,-2.9623528276,-0.218089869,5.0490464921\H,0,-5.21096
 05017,2.7109333843,4.1492598747\H,0,-5.1105287903,0.9480097143,4.09800
 36905\H,0,-3.9271819096,1.8055044084,6.108947682\H,0,-2.920623017,2.84
 89983759,5.0994671081\\Version=ES64L-G09RevD.01\State=1-A\HF=-3096.937
 2811\RMSD=9.280e-09\Dipole=-2.4902219,3.1154722,0.7742304\Quadrupole=1
 7.5257242,-11.1468633,-6.3788609,10.3948333,6.6635053,-1.6347195\PG=C0
 1 [X(C28H37Cl1F4N1O3P1Pd1S1)]\\@


 IF AT FIRST YOU DON'T SUCCEED, TRY, TRY AGAIN.
 THEN GIVE UP;
 THERE'S NO USE BEING A DAMN FOOL ABOUT IT.

                                 -- W. C. FIELDS
 Job cpu time:       0 days 16 hours 56 minutes 59.1 seconds.
 File lengths (MBytes):  RWF=   1608 Int=      0 D2E=      0 Chk=     98 Scr=      1
 Normal termination of Gaussian 09 at Sun Mar  3 14:55:30 2024.
