 Entering Gaussian System, Link 0=g09
 Input=ts_pmes3-v3-released-v1-sp.com
 Output=ts_pmes3-v3-released-v1-sp.log
 Initial command:
 /cluster/apps/gaussian/g09/l1.exe "/cluster/scratch/sroediger/michael/singlepoints/Gau-90855.inp" -scrdir="/cluster/scratch/sroediger/michael/singlepoints/"
 Entering Link 1 = /cluster/apps/gaussian/g09/l1.exe PID=     90865.
  
 Copyright (c) 1988,1990,1992,1993,1995,1998,2003,2009,2013,
            Gaussian, Inc.  All Rights Reserved.
  
 This is part of the Gaussian(R) 09 program.  It is based on
 the Gaussian(R) 03 system (copyright 2003, Gaussian, Inc.),
 the Gaussian(R) 98 system (copyright 1998, Gaussian, Inc.),
 the Gaussian(R) 94 system (copyright 1995, Gaussian, Inc.),
 the Gaussian 92(TM) system (copyright 1992, Gaussian, Inc.),
 the Gaussian 90(TM) system (copyright 1990, Gaussian, Inc.),
 the Gaussian 88(TM) system (copyright 1988, Gaussian, Inc.),
 the Gaussian 86(TM) system (copyright 1986, Carnegie Mellon
 University), and the Gaussian 82(TM) system (copyright 1983,
 Carnegie Mellon University). Gaussian is a federally registered
 trademark of Gaussian, Inc.
  
 This software contains proprietary and confidential information,
 including trade secrets, belonging to Gaussian, Inc.
  
 This software is provided under written license and may be
 used, copied, transmitted, or stored only in accord with that
 written license.
  
 The following legend is applicable only to US Government
 contracts under FAR:
  
                    RESTRICTED RIGHTS LEGEND
  
 Use, reproduction and disclosure by the US Government is
 subject to restrictions as set forth in subparagraphs (a)
 and (c) of the Commercial Computer Software - Restricted
 Rights clause in FAR 52.227-19.
  
 Gaussian, Inc.
 340 Quinnipiac St., Bldg. 40, Wallingford CT 06492
  
  
 ---------------------------------------------------------------
 Warning -- This program may not be used in any manner that
 competes with the business of Gaussian, Inc. or will provide
 assistance to any competitor of Gaussian, Inc.  The licensee
 of this program is prohibited from giving any competitor of
 Gaussian, Inc. access to this program.  By using this program,
 the user acknowledges that Gaussian, Inc. is engaged in the
 business of creating and licensing software in the field of
 computational chemistry and represents and warrants to the
 licensee that it is not a competitor of Gaussian, Inc. and that
 it will not use this program in any manner prohibited above.
 ---------------------------------------------------------------
  

 Cite this work as:
 Gaussian 09, Revision D.01,
 M. J. Frisch, G. W. Trucks, H. B. Schlegel, G. E. Scuseria, 
 M. A. Robb, J. R. Cheeseman, G. Scalmani, V. Barone, B. Mennucci, 
 G. A. Petersson, H. Nakatsuji, M. Caricato, X. Li, H. P. Hratchian, 
 A. F. Izmaylov, J. Bloino, G. Zheng, J. L. Sonnenberg, M. Hada, 
 M. Ehara, K. Toyota, R. Fukuda, J. Hasegawa, M. Ishida, T. Nakajima, 
 Y. Honda, O. Kitao, H. Nakai, T. Vreven, J. A. Montgomery, Jr., 
 J. E. Peralta, F. Ogliaro, M. Bearpark, J. J. Heyd, E. Brothers, 
 K. N. Kudin, V. N. Staroverov, T. Keith, R. Kobayashi, J. Normand, 
 K. Raghavachari, A. Rendell, J. C. Burant, S. S. Iyengar, J. Tomasi, 
 M. Cossi, N. Rega, J. M. Millam, M. Klene, J. E. Knox, J. B. Cross, 
 V. Bakken, C. Adamo, J. Jaramillo, R. Gomperts, R. E. Stratmann, 
 O. Yazyev, A. J. Austin, R. Cammi, C. Pomelli, J. W. Ochterski, 
 R. L. Martin, K. Morokuma, V. G. Zakrzewski, G. A. Voth, 
 P. Salvador, J. J. Dannenberg, S. Dapprich, A. D. Daniels, 
 O. Farkas, J. B. Foresman, J. V. Ortiz, J. Cioslowski, 
 and D. J. Fox, Gaussian, Inc., Wallingford CT, 2013.
 
 ******************************************
 Gaussian 09:  ES64L-G09RevD.01 24-Apr-2013
                26-Feb-2024 
 ******************************************
 %nprocshared=8
 Will use up to    8 processors via shared memory.
 %mem=16GB
 %oldchk=ts_pmes3-v3-released-v1.chk
 %chk=ts_pmes3-v3-released-v1-sp.chk
 Copying data from "ts_pmes3-v3-released-v1.chk" to current chk file "ts_pmes3-v3-released-v1-sp.chk".
 ----------------------------------------------------------------------
 #p sp geom=allcheck scrf(solvent=dichloromethane,smd) wb97xd genecp te
 mperature=313 integral(grid=ultrafine)
 ----------------------------------------------------------------------
 1/29=7,38=1,112=313000/1;
 2/12=2,40=1/2;
 3/5=7,11=2,14=-4,16=1,17=8,25=1,30=1,70=32201,72=9,74=-58,75=-5/1,2,3;
 4//1;
 5/5=2,38=5,53=9/2;
 6/7=2,8=2,9=2,10=2,28=1/1;
 99/5=1,9=1/99;
 Leave Link    1 at Mon Feb 26 11:54:52 2024, MaxMem=  2147483648 cpu:         2.2
 (Enter /cluster/apps/gaussian/g09/l101.exe)
 Structure from the checkpoint file:  "ts_pmes3-v3-released-v1-sp.chk"
 -------------------
 Title Card Required
 -------------------
 Charge =  0 Multiplicity = 1
 Redundant internal coordinates found in file.
 Pd,0,0.0846954987,-0.4131346235,0.8356717516
 C,0,1.4528692757,0.9813793486,0.2248328261
 C,0,1.1065307195,2.298362386,0.5650713071
 H,0,0.5492772945,2.5074544921,1.4766340408
 C,0,1.4202083261,3.326148686,-0.3115611896
 H,0,1.0879079479,4.3458938282,-0.1095813313
 C,0,2.1367660513,3.0787451048,-1.4957308325
 C,0,2.6247178049,1.7976868503,-1.7511206565
 H,0,3.2777260951,1.5951504876,-2.5979460448
 C,0,2.3293209036,0.7542716806,-0.8596220739
 C,0,2.9750670378,-0.5438960134,-0.8093875428
 C,0,3.688470608,-1.2043772122,-1.804411836
 C,0,4.277738477,-2.4378019723,-1.5490429822
 C,0,4.1393420661,-3.0275067007,-0.2914048592
 C,0,3.4088596546,-2.3967679206,0.7152095215
 C,0,2.8582973937,-1.139467892,0.4708264795
 N,0,2.0599122873,-0.4063135419,1.3642186763
 S,0,2.6274091332,0.1669428653,2.8269104316
 O,0,1.5092967695,0.8800733546,3.4305573731
 O,0,3.3451381708,-0.8731596761,3.5360220196
 C,0,3.8179218884,1.4601985186,2.4018071346
 Cl,0,5.2473570513,0.8463874734,1.5811474417
 H,0,4.0971331737,1.9023365961,3.3681117396
 H,0,3.3023899296,2.1946699825,1.7693491309
 F,0,3.2266104435,-3.0373897774,1.8531105433
 F,0,4.661931728,-4.2230270244,-0.0753309018
 F,0,4.9467488488,-3.0716639872,-2.4990219105
 F,0,3.8016018824,-0.6870388063,-3.0262354056
 O,0,2.342446108,4.1461450643,-2.2992521591
 C,0,3.0793070845,3.9608811973,-3.4731330651
 H,0,2.6103937534,3.213859639,-4.1388338018
 H,0,4.1161980642,3.6418266156,-3.264169645
 H,0,3.104946287,4.9298154196,-3.987966645
 P,0,-2.018085205,-0.057631841,-0.0834699449
 C,0,-2.4042273346,-0.8745312424,-1.7079905583
 C,0,-1.3794914956,-1.5516369846,-2.4189033056
 C,0,-3.7275535501,-0.9341386783,-2.2116401628
 C,0,-1.715869204,-2.3157253134,-3.5412858236
 C,0,-4.0046507439,-1.7083388028,-3.3403615793
 C,0,-3.0210836338,-2.4308523417,-4.011508568
 H,0,-0.9118410332,-2.8315921142,-4.0733533375
 H,0,-5.0328417682,-1.7314457464,-3.7131906064
 C,0,-2.131721061,1.7735208516,-0.1304503836
 C,0,-2.0451347158,2.4431742684,1.1203749258
 C,0,-2.0795863638,2.5318051494,-1.3242228952
 C,0,-2.0530245543,3.840126093,1.1420821691
 C,0,-2.0705299336,3.9266088897,-1.2363403384
 C,0,-2.0867951966,4.6071428684,-0.0199847772
 H,0,-2.0040955018,4.3419731464,2.1128640867
 H,0,-2.0293396367,4.5008580272,-2.1663044006
 C,0,-3.317565321,-0.7889940232,1.0228543865
 C,0,-4.4833542232,-0.1656889051,1.527295385
 C,0,-3.0513783321,-2.1383087519,1.3932653232
 C,0,-5.3290734656,-0.8938422708,2.3770282996
 C,0,-3.935257078,-2.8132107776,2.2321125806
 C,0,-5.08402469,-2.2099407018,2.7465248801
 H,0,-6.2258518551,-0.3948431708,2.7569052334
 H,0,-3.7111138036,-3.8501911067,2.4980743445
 C,0,-1.8710162774,1.7327369215,2.4310249624
 H,0,-0.9584820121,1.1025055247,2.417212807
 H,0,-1.7614303012,2.456884654,3.248983683
 H,0,-2.6949891536,1.053671817,2.6834077224
 C,0,0.0795862046,-1.470537532,-2.0876129797
 H,0,0.3085968681,-1.8582831933,-1.0794987058
 H,0,0.6691496655,-2.0447795159,-2.8147299256
 H,0,0.4453104061,-0.4342672047,-2.102044519
 C,0,-1.8398678218,-2.8965291681,0.929639506
 H,0,-0.9005659832,-2.4441782906,1.3130308893
 H,0,-1.8669910249,-3.9291740802,1.3024291245
 H,0,-1.7572998729,-2.9332415838,-0.1661788326
 C,0,-4.9364157617,1.2451352327,1.2549744825
 H,0,-4.8013786015,1.8704058255,2.1519493408
 H,0,-4.4041835498,1.7414586544,0.4425177482
 H,0,-6.010884055,1.2498287698,1.0192114946
 C,0,-6.0025827817,-2.9577623056,3.6658633682
 H,0,-6.3059671546,-3.921819747,3.2290034159
 H,0,-5.5045099413,-3.1807077339,4.6232721457
 H,0,-6.9116117667,-2.3812458619,3.886553394
 C,0,-4.8685883253,-0.1523879529,-1.6371218695
 H,0,-5.310081607,-0.6583549969,-0.7662215735
 H,0,-4.5532045261,0.8467689974,-1.3127415027
 H,0,-5.6590580333,-0.0282943814,-2.389894006
 C,0,-3.3540908002,-3.2948617909,-5.1902401302
 H,0,-3.6338612085,-4.3094847792,-4.860645468
 H,0,-4.2042693062,-2.8915661044,-5.759258299
 H,0,-2.4974689029,-3.3970417352,-5.8716612771
 C,0,-1.9570542136,1.9372489875,-2.6995796515
 H,0,-1.1000352134,1.2521282464,-2.7660570697
 H,0,-2.8437732712,1.366997873,-3.0062750389
 H,0,-1.7991499084,2.737164623,-3.4353134184
 C,0,-2.1124652559,6.105853286,0.0282595446
 H,0,-1.8206926121,6.4831766323,1.0185703747
 H,0,-1.4342875332,6.5428039873,-0.7202889605
 H,0,-3.1232594248,6.4898809617,-0.1878822434
 Recover connectivity data from disk.
 NAtoms=     94 NQM=       94 NQMF=       0 NMMI=      0 NMMIF=      0
                NMic=       0 NMicF=      0.
                    Isotopes and Nuclear Properties:
 (Nuclear quadrupole moments (NQMom) in fm**2, nuclear magnetic moments (NMagM)
  in nuclear magnetons)

  Atom         1           2           3           4           5           6           7           8           9          10
 IAtWgt=         106          12          12           1          12           1          12          12           1          12
 AtmWgt= 105.9032000  12.0000000  12.0000000   1.0078250  12.0000000   1.0078250  12.0000000  12.0000000   1.0078250  12.0000000
 NucSpn=           0           0           0           1           0           1           0           0           1           0
 AtZEff=-237.3600000  -3.6000000  -3.6000000  -1.0000000  -3.6000000  -1.0000000  -3.6000000  -3.6000000  -1.0000000  -3.6000000
 NQMom=    0.0000000   0.0000000   0.0000000   0.0000000   0.0000000   0.0000000   0.0000000   0.0000000   0.0000000   0.0000000
 NMagM=    0.0000000   0.0000000   0.0000000   2.7928460   0.0000000   2.7928460   0.0000000   0.0000000   2.7928460   0.0000000
 AtZNuc=  46.0000000   6.0000000   6.0000000   1.0000000   6.0000000   1.0000000   6.0000000   6.0000000   1.0000000   6.0000000

  Atom        11          12          13          14          15          16          17          18          19          20
 IAtWgt=          12          12          12          12          12          12          14          32          16          16
 AtmWgt=  12.0000000  12.0000000  12.0000000  12.0000000  12.0000000  12.0000000  14.0030740  31.9720718  15.9949146  15.9949146
 NucSpn=           0           0           0           0           0           0           2           0           0           0
 AtZEff=  -3.6000000  -3.6000000  -3.6000000  -3.6000000  -3.6000000  -3.6000000  -4.5500000 -13.6000000  -5.6000000  -5.6000000
 NQMom=    0.0000000   0.0000000   0.0000000   0.0000000   0.0000000   0.0000000   2.0440000   0.0000000   0.0000000   0.0000000
 NMagM=    0.0000000   0.0000000   0.0000000   0.0000000   0.0000000   0.0000000   0.4037610   0.0000000   0.0000000   0.0000000
 AtZNuc=   6.0000000   6.0000000   6.0000000   6.0000000   6.0000000   6.0000000   7.0000000  16.0000000   8.0000000   8.0000000

  Atom        21          22          23          24          25          26          27          28          29          30
 IAtWgt=          12          35           1           1          19          19          19          19          16          12
 AtmWgt=  12.0000000  34.9688527   1.0078250   1.0078250  18.9984033  18.9984033  18.9984033  18.9984033  15.9949146  12.0000000
 NucSpn=           0           3           1           1           1           1           1           1           0           0
 AtZEff=  -3.6000000 -14.2400000  -1.0000000  -1.0000000  -6.7500000  -6.7500000  -6.7500000  -6.7500000  -5.6000000  -3.6000000
 NQMom=    0.0000000  -8.1650000   0.0000000   0.0000000   0.0000000   0.0000000   0.0000000   0.0000000   0.0000000   0.0000000
 NMagM=    0.0000000   0.8218740   2.7928460   2.7928460   2.6288670   2.6288670   2.6288670   2.6288670   0.0000000   0.0000000
 AtZNuc=   6.0000000  17.0000000   1.0000000   1.0000000   9.0000000   9.0000000   9.0000000   9.0000000   8.0000000   6.0000000

  Atom        31          32          33          34          35          36          37          38          39          40
 IAtWgt=           1           1           1          31          12          12          12          12          12          12
 AtmWgt=   1.0078250   1.0078250   1.0078250  30.9737634  12.0000000  12.0000000  12.0000000  12.0000000  12.0000000  12.0000000
 NucSpn=           1           1           1           1           0           0           0           0           0           0
 AtZEff=  -1.0000000  -1.0000000  -1.0000000 -12.9400000  -3.6000000  -3.6000000  -3.6000000  -3.6000000  -3.6000000  -3.6000000
 NQMom=    0.0000000   0.0000000   0.0000000   0.0000000   0.0000000   0.0000000   0.0000000   0.0000000   0.0000000   0.0000000
 NMagM=    2.7928460   2.7928460   2.7928460   1.1316000   0.0000000   0.0000000   0.0000000   0.0000000   0.0000000   0.0000000
 AtZNuc=   1.0000000   1.0000000   1.0000000  15.0000000   6.0000000   6.0000000   6.0000000   6.0000000   6.0000000   6.0000000

  Atom        41          42          43          44          45          46          47          48          49          50
 IAtWgt=           1           1          12          12          12          12          12          12           1           1
 AtmWgt=   1.0078250   1.0078250  12.0000000  12.0000000  12.0000000  12.0000000  12.0000000  12.0000000   1.0078250   1.0078250
 NucSpn=           1           1           0           0           0           0           0           0           1           1
 AtZEff=  -1.0000000  -1.0000000  -3.6000000  -3.6000000  -3.6000000  -3.6000000  -3.6000000  -3.6000000  -1.0000000  -1.0000000
 NQMom=    0.0000000   0.0000000   0.0000000   0.0000000   0.0000000   0.0000000   0.0000000   0.0000000   0.0000000   0.0000000
 NMagM=    2.7928460   2.7928460   0.0000000   0.0000000   0.0000000   0.0000000   0.0000000   0.0000000   2.7928460   2.7928460
 AtZNuc=   1.0000000   1.0000000   6.0000000   6.0000000   6.0000000   6.0000000   6.0000000   6.0000000   1.0000000   1.0000000

  Atom        51          52          53          54          55          56          57          58          59          60
 IAtWgt=          12          12          12          12          12          12           1           1          12           1
 AtmWgt=  12.0000000  12.0000000  12.0000000  12.0000000  12.0000000  12.0000000   1.0078250   1.0078250  12.0000000   1.0078250
 NucSpn=           0           0           0           0           0           0           1           1           0           1
 AtZEff=  -3.6000000  -3.6000000  -3.6000000  -3.6000000  -3.6000000  -3.6000000  -1.0000000  -1.0000000  -3.6000000  -1.0000000
 NQMom=    0.0000000   0.0000000   0.0000000   0.0000000   0.0000000   0.0000000   0.0000000   0.0000000   0.0000000   0.0000000
 NMagM=    0.0000000   0.0000000   0.0000000   0.0000000   0.0000000   0.0000000   2.7928460   2.7928460   0.0000000   2.7928460
 AtZNuc=   6.0000000   6.0000000   6.0000000   6.0000000   6.0000000   6.0000000   1.0000000   1.0000000   6.0000000   1.0000000

  Atom        61          62          63          64          65          66          67          68          69          70
 IAtWgt=           1           1          12           1           1           1          12           1           1           1
 AtmWgt=   1.0078250   1.0078250  12.0000000   1.0078250   1.0078250   1.0078250  12.0000000   1.0078250   1.0078250   1.0078250
 NucSpn=           1           1           0           1           1           1           0           1           1           1
 AtZEff=  -1.0000000  -1.0000000  -3.6000000  -1.0000000  -1.0000000  -1.0000000  -3.6000000  -1.0000000  -1.0000000  -1.0000000
 NQMom=    0.0000000   0.0000000   0.0000000   0.0000000   0.0000000   0.0000000   0.0000000   0.0000000   0.0000000   0.0000000
 NMagM=    2.7928460   2.7928460   0.0000000   2.7928460   2.7928460   2.7928460   0.0000000   2.7928460   2.7928460   2.7928460
 AtZNuc=   1.0000000   1.0000000   6.0000000   1.0000000   1.0000000   1.0000000   6.0000000   1.0000000   1.0000000   1.0000000

  Atom        71          72          73          74          75          76          77          78          79          80
 IAtWgt=          12           1           1           1          12           1           1           1          12           1
 AtmWgt=  12.0000000   1.0078250   1.0078250   1.0078250  12.0000000   1.0078250   1.0078250   1.0078250  12.0000000   1.0078250
 NucSpn=           0           1           1           1           0           1           1           1           0           1
 AtZEff=  -3.6000000  -1.0000000  -1.0000000  -1.0000000  -3.6000000  -1.0000000  -1.0000000  -1.0000000  -3.6000000  -1.0000000
 NQMom=    0.0000000   0.0000000   0.0000000   0.0000000   0.0000000   0.0000000   0.0000000   0.0000000   0.0000000   0.0000000
 NMagM=    0.0000000   2.7928460   2.7928460   2.7928460   0.0000000   2.7928460   2.7928460   2.7928460   0.0000000   2.7928460
 AtZNuc=   6.0000000   1.0000000   1.0000000   1.0000000   6.0000000   1.0000000   1.0000000   1.0000000   6.0000000   1.0000000

  Atom        81          82          83          84          85          86          87          88          89          90
 IAtWgt=           1           1          12           1           1           1          12           1           1           1
 AtmWgt=   1.0078250   1.0078250  12.0000000   1.0078250   1.0078250   1.0078250  12.0000000   1.0078250   1.0078250   1.0078250
 NucSpn=           1           1           0           1           1           1           0           1           1           1
 AtZEff=  -1.0000000  -1.0000000  -3.6000000  -1.0000000  -1.0000000  -1.0000000  -3.6000000  -1.0000000  -1.0000000  -1.0000000
 NQMom=    0.0000000   0.0000000   0.0000000   0.0000000   0.0000000   0.0000000   0.0000000   0.0000000   0.0000000   0.0000000
 NMagM=    2.7928460   2.7928460   0.0000000   2.7928460   2.7928460   2.7928460   0.0000000   2.7928460   2.7928460   2.7928460
 AtZNuc=   1.0000000   1.0000000   6.0000000   1.0000000   1.0000000   1.0000000   6.0000000   1.0000000   1.0000000   1.0000000

  Atom        91          92          93          94
 IAtWgt=          12           1           1           1
 AtmWgt=  12.0000000   1.0078250   1.0078250   1.0078250
 NucSpn=           0           1           1           1
 AtZEff=  -3.6000000  -1.0000000  -1.0000000  -1.0000000
 NQMom=    0.0000000   0.0000000   0.0000000   0.0000000
 NMagM=    0.0000000   2.7928460   2.7928460   2.7928460
 AtZNuc=   6.0000000   1.0000000   1.0000000   1.0000000
 Leave Link  101 at Mon Feb 26 11:54:52 2024, MaxMem=  2147483648 cpu:         2.2
 (Enter /cluster/apps/gaussian/g09/l202.exe)
 Stoichiometry    C41H41ClF4NO3PPdS
 Framework group  C1[X(C41H41ClF4NO3PPdS)]
 Deg. of freedom   276
 Full point group                 C1      NOp   1
 RotChk:  IX=0 Diff= 8.41D-16
 Largest Abelian subgroup         C1      NOp   1
 Largest concise Abelian subgroup C1      NOp   1
                         Standard orientation:                         
 ---------------------------------------------------------------------
 Center     Atomic      Atomic             Coordinates (Angstroms)
 Number     Number       Type             X           Y           Z
 ---------------------------------------------------------------------
      1         46           0       -0.083102   -0.404009   -0.846121
      2          6           0       -1.453199    0.986558   -0.230613
      3          6           0       -1.105992    2.305665   -0.561609
      4          1           0       -0.546086    2.520485   -1.470210
      5          6           0       -1.422342    3.327937    0.320494
      6          1           0       -1.089549    4.348949    0.125857
      7          6           0       -2.142347    3.073093    1.500989
      8          6           0       -2.630921    1.790427    1.746947
      9          1           0       -3.286393    1.582559    2.590572
     10          6           0       -2.332807    0.752618    0.849827
     11          6           0       -2.978276   -0.545262    0.789598
     12          6           0       -3.694533   -1.211995    1.778384
     13          6           0       -4.282928   -2.443850    1.513596
     14          6           0       -4.140784   -3.025685    0.252714
     15          6           0       -3.407412   -2.388619   -0.747796
     16          6           0       -2.857692   -1.132825   -0.493958
     17          7           0       -2.056760   -0.394047   -1.380411
     18         16           0       -2.620017    0.188279   -2.841158
     19          8           0       -1.500208    0.905251   -3.437059
     20          8           0       -3.335560   -0.847435   -3.558849
     21          6           0       -3.811899    1.478763   -2.411490
     22         17           0       -5.243677    0.859730   -1.598876
     23          1           0       -4.088316    1.926899   -3.375833
     24          1           0       -3.298297    2.209315   -1.772951
     25          9           0       -3.221761   -3.022114   -1.889132
     26          9           0       -4.662620   -4.219875    0.027652
     27          9           0       -4.954662   -3.083680    2.457633
     28          9           0       -3.811300   -0.702300    3.003074
     29          8           0       -2.350489    4.135442    2.310547
     30          6           0       -3.090774    3.942799    3.481081
     31          1           0       -2.623744    3.191676    4.143481
     32          1           0       -4.127016    3.624972    3.267088
     33          1           0       -3.118019    4.908500    4.001872
     34         15           0        2.016937   -0.054081    0.081389
     35          6           0        2.398390   -0.881070    1.701908
     36          6           0        1.371638   -1.562680    2.405571
     37          6           0        3.720238   -0.943714    2.209058
     38          6           0        1.704795   -2.333730    3.524147
     39          6           0        3.994097   -1.724920    3.333736
     40          6           0        3.008635   -2.451685    3.997472
     41          1           0        0.899259   -2.852970    4.050623
     42          1           0        5.021191   -1.750271    3.709430
     43          6           0        2.130256    1.776752    0.140127
     44          6           0        2.047275    2.454190   -1.106745
     45          6           0        2.074544    2.527568    1.338449
     46          6           0        2.055092    3.851250   -1.119712
     47          6           0        2.065609    3.922893    1.259245
     48          6           0        2.085377    4.611004    0.047212
     49          1           0        2.008964    4.359141   -2.087484
     50          1           0        2.021633    4.491325    2.192649
     51          6           0        3.319730   -0.778423   -1.025657
     52          6           0        4.486934   -0.151890   -1.522775
     53          6           0        3.054763   -2.125422   -1.405260
     54          6           0        5.335214   -0.874660   -2.374549
     55          6           0        3.941166   -2.795006   -2.245703
     56          6           0        5.091380   -2.188447   -2.752967
     57          1           0        6.233055   -0.373230   -2.748671
     58          1           0        3.717906   -3.830325   -2.518787
     59          6           0        1.877074    1.751930   -2.422307
     60          1           0        0.964565    1.121552   -2.415106
     61          1           0        1.769818    2.481159   -3.236050
     62          1           0        2.701850    1.074518   -2.676502
     63          6           0       -0.086469   -1.479631    2.070511
     64          1           0       -0.312482   -1.861097    1.059330
     65          1           0       -0.678108   -2.058445    2.792298
     66          1           0       -0.452335   -0.443500    2.090335
     67          6           0        1.841971   -2.886616   -0.949932
     68          1           0        0.903755   -2.431957   -1.333249
     69          1           0        1.870290   -3.916913   -1.329076
     70          1           0        1.756191   -2.930172    0.145389
     71          6           0        4.939056    1.257243   -1.240329
     72          1           0        4.806591    1.888088   -2.133777
     73          1           0        4.404393    1.748445   -0.426357
     74          1           0        6.012827    1.260551   -1.001388
     75          6           0        6.012705   -2.930445   -3.674253
     76          1           0        6.314900   -3.897186   -3.242528
     77          1           0        5.517466   -3.147452   -4.634492
     78          1           0        6.922321   -2.352491   -3.888673
     79          6           0        4.862877   -0.158303    1.642781
     80          1           0        5.306974   -0.658792    0.770040
     81          1           0        4.548349    0.842833    1.323716
     82          1           0        5.651122   -0.038846    2.398629
     83          6           0        3.338265   -3.323006    5.171762
     84          1           0        3.619101   -4.335530    4.836666
     85          1           0        4.186731   -2.923201    5.745779
     86          1           0        2.479657   -3.429504    5.850015
     87          6           0        1.948033    1.924433    2.709704
     88          1           0        1.090890    1.238842    2.769389
     89          1           0        2.833904    1.352349    3.015437
     90          1           0        1.787892    2.719729    3.449948
     91          6           0        2.111043    6.109988    0.008395
     92          1           0        1.822141    6.493460   -0.980395
     93          1           0        1.430628    6.542206    0.757661
     94          1           0        3.121160    6.492740    0.229895
 ---------------------------------------------------------------------
 Rotational constants (GHZ):      0.0614179      0.0409789      0.0386750
 Leave Link  202 at Mon Feb 26 11:54:52 2024, MaxMem=  2147483648 cpu:         0.0
 (Enter /cluster/apps/gaussian/g09/l301.exe)
 General basis read from cards:  (5D, 7F)
 Centers:       2      3      5      7      8     10     11     12     13     14
 Centers:      15     16     21     30     35     36     37     38     39     40
 Centers:      43     44     45     46     47     48     51     52     53     54
 Centers:      55     56     59     63     67     71     75     79     83     87
 Centers:      91      4      6      9     23     24     31     32     33     41
 Centers:      42     49     50     57     58     60     61     62     64     65
 Centers:      66     68     69     70     72     73     74     76     77     78
 Centers:      80     81     82     84     85     86     88     89     90     92
 Centers:      93     94     18     25     26     27     28     17     34     22
 Centers:      19     20     29      1
 def2tzvp
 ****
 ======================================================================================================
                                       Pseudopotential Parameters
 ======================================================================================================
  Center     Atomic      Valence      Angular      Power
  Number     Number     Electrons     Momentum     of R      Exponent        Coefficient   SO-Coeffient
 ======================================================================================================
    1         46           18
                                      G and up 
                                                     2        1.0000000        0.00000000    0.00000000
                                      S - G
                                                     2       12.4300000      240.22904000    0.00000000
                                                     2        6.1707590       35.17194300    0.00000000
                                      P - G
                                                     2       11.0800000      170.41727600    0.00000000
                                                     2        5.8295540       28.47213300    0.00000000
                                      D - G
                                                     2        9.5100000       69.01384500    0.00000000
                                                     2        4.1397810       11.75086200    0.00000000
                                      F - G
                                                     2       13.2700000      -31.92955400    0.00000000
                                                     2        6.6300000       -5.39821700    0.00000000
    2          6
                                   No pseudopotential on this center.
    3          6
                                   No pseudopotential on this center.
    4          1
                                   No pseudopotential on this center.
    5          6
                                   No pseudopotential on this center.
    6          1
                                   No pseudopotential on this center.
    7          6
                                   No pseudopotential on this center.
    8          6
                                   No pseudopotential on this center.
    9          1
                                   No pseudopotential on this center.
   10          6
                                   No pseudopotential on this center.
   11          6
                                   No pseudopotential on this center.
   12          6
                                   No pseudopotential on this center.
   13          6
                                   No pseudopotential on this center.
   14          6
                                   No pseudopotential on this center.
   15          6
                                   No pseudopotential on this center.
   16          6
                                   No pseudopotential on this center.
   17          7
                                   No pseudopotential on this center.
   18         16
                                   No pseudopotential on this center.
   19          8
                                   No pseudopotential on this center.
   20          8
                                   No pseudopotential on this center.
   21          6
                                   No pseudopotential on this center.
   22         17
                                   No pseudopotential on this center.
   23          1
                                   No pseudopotential on this center.
   24          1
                                   No pseudopotential on this center.
   25          9
                                   No pseudopotential on this center.
   26          9
                                   No pseudopotential on this center.
   27          9
                                   No pseudopotential on this center.
   28          9
                                   No pseudopotential on this center.
   29          8
                                   No pseudopotential on this center.
   30          6
                                   No pseudopotential on this center.
   31          1
                                   No pseudopotential on this center.
   32          1
                                   No pseudopotential on this center.
   33          1
                                   No pseudopotential on this center.
   34         15
                                   No pseudopotential on this center.
   35          6
                                   No pseudopotential on this center.
   36          6
                                   No pseudopotential on this center.
   37          6
                                   No pseudopotential on this center.
   38          6
                                   No pseudopotential on this center.
   39          6
                                   No pseudopotential on this center.
   40          6
                                   No pseudopotential on this center.
   41          1
                                   No pseudopotential on this center.
   42          1
                                   No pseudopotential on this center.
   43          6
                                   No pseudopotential on this center.
   44          6
                                   No pseudopotential on this center.
   45          6
                                   No pseudopotential on this center.
   46          6
                                   No pseudopotential on this center.
   47          6
                                   No pseudopotential on this center.
   48          6
                                   No pseudopotential on this center.
   49          1
                                   No pseudopotential on this center.
   50          1
                                   No pseudopotential on this center.
   51          6
                                   No pseudopotential on this center.
   52          6
                                   No pseudopotential on this center.
   53          6
                                   No pseudopotential on this center.
   54          6
                                   No pseudopotential on this center.
   55          6
                                   No pseudopotential on this center.
   56          6
                                   No pseudopotential on this center.
   57          1
                                   No pseudopotential on this center.
   58          1
                                   No pseudopotential on this center.
   59          6
                                   No pseudopotential on this center.
   60          1
                                   No pseudopotential on this center.
   61          1
                                   No pseudopotential on this center.
   62          1
                                   No pseudopotential on this center.
   63          6
                                   No pseudopotential on this center.
   64          1
                                   No pseudopotential on this center.
   65          1
                                   No pseudopotential on this center.
   66          1
                                   No pseudopotential on this center.
   67          6
                                   No pseudopotential on this center.
   68          1
                                   No pseudopotential on this center.
   69          1
                                   No pseudopotential on this center.
   70          1
                                   No pseudopotential on this center.
   71          6
                                   No pseudopotential on this center.
   72          1
                                   No pseudopotential on this center.
   73          1
                                   No pseudopotential on this center.
   74          1
                                   No pseudopotential on this center.
   75          6
                                   No pseudopotential on this center.
   76          1
                                   No pseudopotential on this center.
   77          1
                                   No pseudopotential on this center.
   78          1
                                   No pseudopotential on this center.
   79          6
                                   No pseudopotential on this center.
   80          1
                                   No pseudopotential on this center.
   81          1
                                   No pseudopotential on this center.
   82          1
                                   No pseudopotential on this center.
   83          6
                                   No pseudopotential on this center.
   84          1
                                   No pseudopotential on this center.
   85          1
                                   No pseudopotential on this center.
   86          1
                                   No pseudopotential on this center.
   87          6
                                   No pseudopotential on this center.
   88          1
                                   No pseudopotential on this center.
   89          1
                                   No pseudopotential on this center.
   90          1
                                   No pseudopotential on this center.
   91          6
                                   No pseudopotential on this center.
   92          1
                                   No pseudopotential on this center.
   93          1
                                   No pseudopotential on this center.
   94          1
                                   No pseudopotential on this center.
 ======================================================================================================
 Ernie: Thresh=  0.10000D-02 Tol=  0.10000D-05 Strict=F.
 There are  2182 symmetry adapted cartesian basis functions of A   symmetry.
 There are  1916 symmetry adapted basis functions of A   symmetry.
  1916 basis functions,  3108 primitive gaussians,  2182 cartesian basis functions
   210 alpha electrons      210 beta electrons
       nuclear repulsion energy      9376.2860599837 Hartrees.
 IExCor= 4639 DFT=T Ex+Corr=wB97XD ExCW=0 ScaHFX=  1.000000
 ScaDFX=  1.000000  1.000000  1.000000  1.000000 ScalE2=  1.000000  1.000000
 IRadAn=      5 IRanWt=     -1 IRanGd=            0 ICorTp=0 IEmpDi=121
  HFx wShort=  0.000000 wLong=  0.200000 cFull=  0.222036 cShort=  0.000000 cLong=  0.777964
  DFx wShort=  0.000000 wLong=  0.200000 cFull=  0.000000 cShort=  0.000000 cLong=  1.000000
 NAtoms=   94 NActive=   94 NUniq=   94 SFac= 1.00D+00 NAtFMM=   60 NAOKFM=T Big=T
 Integral buffers will be    131072 words long.
 Raffenetti 2 integral format.
 Two-electron integral symmetry is turned on.
 R6Disp:  Grimme-D2 Dispersion energy=       -0.1244684010 Hartrees.
 Nuclear repulsion after empirical dispersion term =     9376.1615915827 Hartrees.
 ------------------------------------------------------------------------------
 Polarizable Continuum Model (PCM)
 =================================
 Model                : PCM (using non-symmetric T matrix).
 Atomic radii         : SMD-Coulomb.
 Polarization charges : Total charges.
 Charge compensation  : None.
 Solution method      : On-the-fly selection.
 Cavity type          : VdW (van der Waals Surface) (Alpha=1.000).
 Cavity algorithm     : GePol (No added spheres)
                        Default sphere list used, NSphG=   94.
                        Lebedev-Laikov grids with approx.  5.0 points / Ang**2.
                        Smoothing algorithm: Karplus/York (Gamma=1.0000).
                        Polarization charges: spherical gaussians, with
                                              point-specific exponents (IZeta= 3).
                        Self-potential: point-specific (ISelfS= 7).
                        Self-field    : sphere-specific E.n sum rule (ISelfD= 2).
 Solvent              : Dichloromethane, Eps=   8.930000 Eps(inf)=   2.028346
 ------------------------------------------------------------------------------
 GePol: Number of generator spheres                  =      94
 GePol: Total number of spheres                      =      94
 GePol: Number of exposed spheres                    =      94 (100.00%)
 GePol: Number of points                             =    6479
 GePol: Average weight of points                     =       0.11
 GePol: Minimum weight of points                     =   0.30D-09
 GePol: Maximum weight of points                     =    0.21501
 GePol: Number of points with low weight             =     417
 GePol: Fraction of low-weight points (<1% of avg)   =       6.44%
 GePol: Cavity surface area                          =    734.370 Ang**2
 GePol: Cavity volume                                =    794.462 Ang**3
 ------------------------------------------------------------------------------
 Atomic radii for non-electrostatic terms: SMD-CDS.
 ------------------------------------------------------------------------------
 PCM non-electrostatic energy =        -0.0137043447 Hartrees.
 Nuclear repulsion after PCM non-electrostatic terms =     9376.1478872379 Hartrees.
 Leave Link  301 at Mon Feb 26 11:54:52 2024, MaxMem=  2147483648 cpu:         0.4
 (Enter /cluster/apps/gaussian/g09/l302.exe)
 NPDir=0 NMtPBC=     1 NCelOv=     1 NCel=       1 NClECP=     1 NCelD=      1
         NCelK=      1 NCelE2=     1 NClLst=     1 CellRange=     0.0.
 One-electron integrals computed using PRISM.
   1 Symmetry operations used in ECPInt.
 ECPInt:  NShTT=  286146 NPrTT=  883778 LenC2=  213442 LenP2D=  426418.
 LDataN:  DoStor=T MaxTD1= 7 Len=  274
 NBasis=  1916 RedAO= T EigKep=  2.97D-06  NBF=  1916
 NBsUse=  1916 1.00D-06 EigRej= -1.00D+00 NBFU=  1916
 Precomputing XC quadrature grid using
 IXCGrd= 4 IRadAn=           5 IRanWt=          -1 IRanGd=           0 AccXCQ= 0.00D+00.
 Defaulting to unpruned grid for atomic number  46.
 Generated NRdTot=       0 NPtTot=           0 NUsed=           0 NTot=          32
 NSgBfM=  1918  1918  1924  1934  1939 MxSgAt=    94 MxSgA2=    94.
 Leave Link  302 at Mon Feb 26 11:55:03 2024, MaxMem=  2147483648 cpu:        84.0
 (Enter /cluster/apps/gaussian/g09/l303.exe)
 DipDrv:  MaxL=1.
 Leave Link  303 at Mon Feb 26 11:55:04 2024, MaxMem=  2147483648 cpu:         3.8
 (Enter /cluster/apps/gaussian/g09/l401.exe)
 ExpMin= 3.70D-02 ExpMax= 6.95D+04 ExpMxC= 2.37D+03 IAcc=3 IRadAn=         5 AccDes= 0.00D+00
 Harris functional with IExCor= 4639 and IRadAn=       5 diagonalized for initial guess.
 HarFok:  IExCor= 4639 AccDes= 0.00D+00 IRadAn=         5 IDoV= 1 UseB2=F ITyADJ=14
 ICtDFT=  3500011 ScaDFX=  1.000000  1.000000  1.000000  1.000000
 Defaulting to unpruned grid for atomic number  46.
 Defaulting to unpruned grid for atomic number  46.
 Defaulting to unpruned grid for atomic number  46.
 Defaulting to unpruned grid for atomic number  46.
 Defaulting to unpruned grid for atomic number  46.
 Defaulting to unpruned grid for atomic number  46.
 Defaulting to unpruned grid for atomic number  46.
 Defaulting to unpruned grid for atomic number  46.
 FoFCou: FMM=F IPFlag=           0 FMFlag=      100000 FMFlg1=        2001
         NFxFlg=           0 DoJE=T BraDBF=F KetDBF=T FulRan=T
         wScrn=  0.000000 ICntrl=     500 IOpCl=  0 I1Cent=   200000004 NGrid=           0
         NMat0=    1 NMatS0=      1 NMatT0=    0 NMatD0=    1 NMtDS0=    0 NMtDT0=    0
 Petite list used in FoFCou.
 Harris En= -3475.28305400777    
 JPrj=0 DoOrth=F DoCkMO=F.
 Leave Link  401 at Mon Feb 26 11:55:46 2024, MaxMem=  2147483648 cpu:       340.9
 (Enter /cluster/apps/gaussian/g09/l502.exe)
 Closed shell SCF:
 Using DIIS extrapolation, IDIIS=  1040.
 Integral symmetry usage will be decided dynamically.
 IVT=    14335330 IEndB=    14335330 NGot=  2147483648 MDV=  2137928265
 LenX=  2137928265 LenY=  2133164959
 Requested convergence on RMS density matrix=1.00D-08 within 128 cycles.
 Requested convergence on MAX density matrix=1.00D-06.
 Requested convergence on             energy=1.00D-06.
 No special actions if energy rises.
 Fock matrices will be formed incrementally for  20 cycles.

 Cycle   1  Pass 1  IDiag  1:
 FoFJK:  IHMeth= 1 ICntrl=       0 DoSepK=T KAlg= 0 I1Cent=   0 FoldK=F
 IRaf=         1 NMat=   1 IRICut=       1 DoRegI=T DoRafI=F ISym2E= 0.
 FoFCou: FMM=T IPFlag=           0 FMFlag=      100000 FMFlg1=        2001
         NFxFlg=           0 DoJE=T BraDBF=F KetDBF=F FulRan=T
         wScrn=  0.000000 ICntrl=     500 IOpCl=  0 I1Cent=           0 NGrid=           0
         NMat0=    1 NMatS0=      1 NMatT0=    0 NMatD0=    1 NMtDS0=    0 NMtDT0=    0
 Symmetry not used in FoFCou.
 FMM levels:  10  Number of levels for PrismC:   9
 Defaulting to unpruned grid for atomic number  46.
 Defaulting to unpruned grid for atomic number  46.
 Defaulting to unpruned grid for atomic number  46.
 Defaulting to unpruned grid for atomic number  46.
 Defaulting to unpruned grid for atomic number  46.
 Defaulting to unpruned grid for atomic number  46.
 Defaulting to unpruned grid for atomic number  46.
 Defaulting to unpruned grid for atomic number  46.
 Inv3:  Mode=1 IEnd=   125932323.
 Iteration    1 A*A^-1 deviation from unit magnitude is 9.33D-15 for   6460.
 Iteration    1 A*A^-1 deviation from orthogonality  is 1.28D-14 for   6439   6037.
 Iteration    1 A^-1*A deviation from unit magnitude is 7.33D-15 for   6460.
 Iteration    1 A^-1*A deviation from orthogonality  is 8.16D-11 for   2518   2517.
 E= -3579.47819022216    
 DIIS: error= 3.87D-02 at cycle   1 NSaved=   1.
 NSaved= 1 IEnMin= 1 EnMin= -3579.47819022216     IErMin= 1 ErrMin= 3.87D-02
 ErrMax= 3.87D-02  0.00D+00 EMaxC= 1.00D-01 BMatC= 1.47D+01 BMatP= 1.47D+01
 IDIUse=3 WtCom= 6.13D-01 WtEn= 3.87D-01
 Coeff-Com:  0.100D+01
 Coeff-En:   0.100D+01
 Coeff:      0.100D+01
 Gap=     0.120 Goal=   None    Shift=    0.000
 GapD=    0.120 DampG=1.000 DampE=0.250 DampFc=0.2500 IDamp=-1.
 Damping current iteration by 2.50D-01
 RMSDP=2.19D-01 MaxDP=9.43D+01              OVMax= 9.83D-01

 Cycle   2  Pass 1  IDiag  1:
 RMSU=  5.35D-02    CP:  2.29D+00
 E= -3575.27191813287     Delta-E=        4.206272089294 Rises=F Damp=T
 DIIS: error= 2.31D-02 at cycle   2 NSaved=   2.
 NSaved= 2 IEnMin= 1 EnMin= -3579.47819022216     IErMin= 2 ErrMin= 2.31D-02
 ErrMax= 2.31D-02  0.00D+00 EMaxC= 1.00D-01 BMatC= 4.83D+00 BMatP= 1.47D+01
 IDIUse=3 WtCom= 7.69D-01 WtEn= 2.31D-01
 Coeff-Com:  0.878D-01 0.912D+00
 Coeff-En:   0.611D+00 0.389D+00
 Coeff:      0.209D+00 0.791D+00
 Gap=    -0.290 Goal=   None    Shift=    0.000
 RMSDP=5.51D-02 MaxDP=2.35D+01 DE= 4.21D+00 OVMax= 9.57D-01

 Cycle   3  Pass 1  IDiag  1:
 RMSU=  3.76D-03    CP:  4.91D-01  1.45D-02
 E= -3590.99241896449     Delta-E=      -15.720500831616 Rises=F Damp=F
 DIIS: error= 1.88D-02 at cycle   3 NSaved=   3.
 NSaved= 3 IEnMin= 3 EnMin= -3590.99241896449     IErMin= 3 ErrMin= 1.88D-02
 ErrMax= 1.88D-02  0.00D+00 EMaxC= 1.00D-01 BMatC= 3.69D+00 BMatP= 4.83D+00
 IDIUse=3 WtCom= 8.12D-01 WtEn= 1.88D-01
 Coeff-Com:  0.526D-01 0.402D+00 0.546D+00
 Coeff-En:   0.111D+00 0.000D+00 0.889D+00
 Coeff:      0.635D-01 0.326D+00 0.610D+00
 Gap=     0.403 Goal=   None    Shift=    0.000
 RMSDP=4.69D-03 MaxDP=1.73D+00 DE=-1.57D+01 OVMax= 5.54D-01

 Cycle   4  Pass 1  IDiag  1:
 RMSU=  3.93D-03    CP:  5.49D-01  5.38D-02  6.28D-01
 E= -3591.17390883749     Delta-E=       -0.181489873001 Rises=F Damp=F
 DIIS: error= 2.25D-02 at cycle   4 NSaved=   4.
 NSaved= 4 IEnMin= 4 EnMin= -3591.17390883749     IErMin= 3 ErrMin= 1.88D-02
 ErrMax= 2.25D-02  0.00D+00 EMaxC= 1.00D-01 BMatC= 4.34D+00 BMatP= 3.69D+00
 IDIUse=2 WtCom= 0.00D+00 WtEn= 1.00D+00
 Coeff-En:   0.000D+00 0.000D+00 0.489D+00 0.511D+00
 Coeff:      0.000D+00 0.000D+00 0.489D+00 0.511D+00
 Gap=     0.187 Goal=   None    Shift=    0.000
 RMSDP=4.21D-03 MaxDP=1.87D+00 DE=-1.81D-01 OVMax= 5.58D-01

 Cycle   5  Pass 1  IDiag  1:
 RMSU=  1.80D-03    CP:  4.59D-01  1.05D-02  8.32D-01  2.84D-01
 E= -3594.04730152856     Delta-E=       -2.873392691070 Rises=F Damp=F
 DIIS: error= 1.07D-02 at cycle   5 NSaved=   5.
 NSaved= 5 IEnMin= 5 EnMin= -3594.04730152856     IErMin= 5 ErrMin= 1.07D-02
 ErrMax= 1.07D-02  0.00D+00 EMaxC= 1.00D-01 BMatC= 8.34D-01 BMatP= 3.69D+00
 IDIUse=3 WtCom= 8.93D-01 WtEn= 1.07D-01
 Coeff-Com:  0.354D-01 0.111D-01 0.231D+00 0.267D+00 0.455D+00
 Coeff-En:   0.000D+00 0.000D+00 0.000D+00 0.135D+00 0.865D+00
 Coeff:      0.316D-01 0.993D-02 0.206D+00 0.253D+00 0.499D+00
 Gap=     0.244 Goal=   None    Shift=    0.000
 RMSDP=1.39D-03 MaxDP=4.84D-01 DE=-2.87D+00 OVMax= 2.37D-01

 Cycle   6  Pass 1  IDiag  1:
 RMSU=  9.82D-04    CP:  4.13D-01  3.79D-03  7.66D-01  3.34D-01  5.83D-01
 E= -3594.70145134624     Delta-E=       -0.654149817687 Rises=F Damp=F
 DIIS: error= 1.43D-03 at cycle   6 NSaved=   6.
 NSaved= 6 IEnMin= 6 EnMin= -3594.70145134624     IErMin= 6 ErrMin= 1.43D-03
 ErrMax= 1.43D-03  0.00D+00 EMaxC= 1.00D-01 BMatC= 2.12D-02 BMatP= 8.34D-01
 IDIUse=3 WtCom= 9.86D-01 WtEn= 1.43D-02
 Coeff-Com:  0.127D-01-0.119D-01-0.587D-02 0.218D-01 0.108D+00 0.876D+00
 Coeff-En:   0.000D+00 0.000D+00 0.000D+00 0.000D+00 0.000D+00 0.100D+01
 Coeff:      0.125D-01-0.117D-01-0.578D-02 0.215D-01 0.106D+00 0.877D+00
 Gap=     0.261 Goal=   None    Shift=    0.000
 RMSDP=3.80D-04 MaxDP=8.29D-02 DE=-6.54D-01 OVMax= 3.42D-02

 Cycle   7  Pass 1  IDiag  1:
 RMSU=  3.03D-04    CP:  4.11D-01  1.70D-03  7.51D-01  3.08D-01  5.31D-01
                    CP:  1.14D+00
 E= -3594.71687489685     Delta-E=       -0.015423550603 Rises=F Damp=F
 DIIS: error= 7.74D-04 at cycle   7 NSaved=   7.
 NSaved= 7 IEnMin= 7 EnMin= -3594.71687489685     IErMin= 7 ErrMin= 7.74D-04
 ErrMax= 7.74D-04  0.00D+00 EMaxC= 1.00D-01 BMatC= 7.60D-03 BMatP= 2.12D-02
 IDIUse=3 WtCom= 9.92D-01 WtEn= 7.74D-03
 Coeff-Com: -0.905D-04 0.105D-02-0.339D-02 0.328D-02-0.602D-02 0.349D+00
 Coeff-Com:  0.656D+00
 Coeff-En:   0.000D+00 0.000D+00 0.000D+00 0.000D+00 0.000D+00 0.000D+00
 Coeff-En:   0.100D+01
 Coeff:     -0.898D-04 0.104D-02-0.336D-02 0.325D-02-0.598D-02 0.347D+00
 Coeff:      0.659D+00
 Gap=     0.251 Goal=   None    Shift=    0.000
 RMSDP=1.07D-04 MaxDP=2.08D-02 DE=-1.54D-02 OVMax= 2.40D-02

 Cycle   8  Pass 1  IDiag  1:
 RMSU=  8.95D-05    CP:  4.09D-01  1.58D-03  7.49D-01  3.11D-01  5.14D-01
                    CP:  1.18D+00  9.53D-01
 E= -3594.72264718902     Delta-E=       -0.005772292172 Rises=F Damp=F
 DIIS: error= 3.35D-04 at cycle   8 NSaved=   8.
 NSaved= 8 IEnMin= 8 EnMin= -3594.72264718902     IErMin= 8 ErrMin= 3.35D-04
 ErrMax= 3.35D-04  0.00D+00 EMaxC= 1.00D-01 BMatC= 1.12D-03 BMatP= 7.60D-03
 IDIUse=3 WtCom= 9.97D-01 WtEn= 3.35D-03
 Coeff-Com: -0.139D-02 0.155D-02-0.119D-02-0.278D-02 0.218D-02 0.496D-01
 Coeff-Com:  0.251D+00 0.701D+00
 Coeff-En:   0.000D+00 0.000D+00 0.000D+00 0.000D+00 0.000D+00 0.000D+00
 Coeff-En:   0.000D+00 0.100D+01
 Coeff:     -0.139D-02 0.154D-02-0.119D-02-0.277D-02 0.217D-02 0.494D-01
 Coeff:      0.250D+00 0.702D+00
 Gap=     0.254 Goal=   None    Shift=    0.000
 RMSDP=4.06D-05 MaxDP=1.02D-02 DE=-5.77D-03 OVMax= 7.53D-03

 Cycle   9  Pass 1  IDiag  1:
 RMSU=  3.56D-05    CP:  4.09D-01  1.68D-03  7.49D-01  3.12D-01  5.21D-01
                    CP:  1.17D+00  9.75D-01  9.63D-01
 E= -3594.72364557430     Delta-E=       -0.000998385276 Rises=F Damp=F
 DIIS: error= 1.57D-04 at cycle   9 NSaved=   9.
 NSaved= 9 IEnMin= 9 EnMin= -3594.72364557430     IErMin= 9 ErrMin= 1.57D-04
 ErrMax= 1.57D-04  0.00D+00 EMaxC= 1.00D-01 BMatC= 2.93D-04 BMatP= 1.12D-03
 IDIUse=3 WtCom= 9.98D-01 WtEn= 1.57D-03
 Coeff-Com: -0.435D-03 0.162D-03-0.706D-03-0.345D-02 0.962D-02-0.767D-02
 Coeff-Com:  0.420D-01 0.277D+00 0.684D+00
 Coeff-En:   0.000D+00 0.000D+00 0.000D+00 0.000D+00 0.000D+00 0.000D+00
 Coeff-En:   0.000D+00 0.000D+00 0.100D+01
 Coeff:     -0.434D-03 0.162D-03-0.705D-03-0.344D-02 0.960D-02-0.766D-02
 Coeff:      0.419D-01 0.276D+00 0.684D+00
 Gap=     0.254 Goal=   None    Shift=    0.000
 RMSDP=2.47D-05 MaxDP=5.22D-03 DE=-9.98D-04 OVMax= 4.27D-03

 Cycle  10  Pass 1  IDiag  1:
 RMSU=  1.66D-05    CP:  4.09D-01  1.71D-03  7.50D-01  3.09D-01  5.25D-01
                    CP:  1.16D+00  9.87D-01  1.03D+00  1.18D+00
 E= -3594.72395702883     Delta-E=       -0.000311454536 Rises=F Damp=F
 DIIS: error= 6.99D-05 at cycle  10 NSaved=  10.
 NSaved=10 IEnMin=10 EnMin= -3594.72395702883     IErMin=10 ErrMin= 6.99D-05
 ErrMax= 6.99D-05  0.00D+00 EMaxC= 1.00D-01 BMatC= 3.88D-05 BMatP= 2.93D-04
 IDIUse=1 WtCom= 1.00D+00 WtEn= 0.00D+00
 Coeff-Com:  0.575D-04-0.163D-03-0.102D-03-0.172D-02 0.479D-02-0.639D-02
 Coeff-Com: -0.215D-01-0.343D-01 0.196D+00 0.864D+00
 Coeff:      0.575D-04-0.163D-03-0.102D-03-0.172D-02 0.479D-02-0.639D-02
 Coeff:     -0.215D-01-0.343D-01 0.196D+00 0.864D+00
 Gap=     0.255 Goal=   None    Shift=    0.000
 RMSDP=1.26D-05 MaxDP=2.15D-03 DE=-3.11D-04 OVMax= 3.33D-03

 Cycle  11  Pass 1  IDiag  1:
 RMSU=  6.38D-06    CP:  4.10D-01  1.73D-03  7.51D-01  3.08D-01  5.27D-01
                    CP:  1.16D+00  9.98D-01  1.04D+00  1.38D+00  1.26D+00
 E= -3594.72402769741     Delta-E=       -0.000070668577 Rises=F Damp=F
 DIIS: error= 2.28D-05 at cycle  11 NSaved=  11.
 NSaved=11 IEnMin=11 EnMin= -3594.72402769741     IErMin=11 ErrMin= 2.28D-05
 ErrMax= 2.28D-05  0.00D+00 EMaxC= 1.00D-01 BMatC= 6.15D-06 BMatP= 3.88D-05
 IDIUse=1 WtCom= 1.00D+00 WtEn= 0.00D+00
 Coeff-Com:  0.916D-04-0.212D-04 0.191D-03-0.116D-03-0.321D-03-0.155D-02
 Coeff-Com: -0.200D-01-0.843D-01-0.103D+00 0.388D+00 0.821D+00
 Coeff:      0.916D-04-0.212D-04 0.191D-03-0.116D-03-0.321D-03-0.155D-02
 Coeff:     -0.200D-01-0.843D-01-0.103D+00 0.388D+00 0.821D+00
 Gap=     0.255 Goal=   None    Shift=    0.000
 RMSDP=7.36D-06 MaxDP=1.24D-03 DE=-7.07D-05 OVMax= 2.32D-03

 Cycle  12  Pass 1  IDiag  1:
 RMSU=  3.16D-06    CP:  4.10D-01  1.74D-03  7.51D-01  3.08D-01  5.28D-01
                    CP:  1.16D+00  1.00D+00  1.05D+00  1.50D+00  1.48D+00
                    CP:  1.34D+00
 E= -3594.72404424141     Delta-E=       -0.000016544000 Rises=F Damp=F
 DIIS: error= 8.17D-06 at cycle  12 NSaved=  12.
 NSaved=12 IEnMin=12 EnMin= -3594.72404424141     IErMin=12 ErrMin= 8.17D-06
 ErrMax= 8.17D-06  0.00D+00 EMaxC= 1.00D-01 BMatC= 7.12D-07 BMatP= 6.15D-06
 IDIUse=1 WtCom= 1.00D+00 WtEn= 0.00D+00
 Coeff-Com:  0.244D-04 0.759D-05 0.103D-03 0.121D-03-0.910D-03-0.729D-04
 Coeff-Com: -0.263D-02-0.217D-01-0.605D-01 0.258D-01 0.290D+00 0.770D+00
 Coeff:      0.244D-04 0.759D-05 0.103D-03 0.121D-03-0.910D-03-0.729D-04
 Coeff:     -0.263D-02-0.217D-01-0.605D-01 0.258D-01 0.290D+00 0.770D+00
 Gap=     0.255 Goal=   None    Shift=    0.000
 RMSDP=2.23D-06 MaxDP=4.36D-04 DE=-1.65D-05 OVMax= 9.10D-04

 Cycle  13  Pass 1  IDiag  1:
 RMSU=  1.06D-06    CP:  4.10D-01  1.74D-03  7.51D-01  3.08D-01  5.28D-01
                    CP:  1.16D+00  1.00D+00  1.06D+00  1.51D+00  1.55D+00
                    CP:  1.49D+00  1.21D+00
 E= -3594.72404613622     Delta-E=       -0.000001894814 Rises=F Damp=F
 DIIS: error= 4.76D-06 at cycle  13 NSaved=  13.
 NSaved=13 IEnMin=13 EnMin= -3594.72404613622     IErMin=13 ErrMin= 4.76D-06
 ErrMax= 4.76D-06  0.00D+00 EMaxC= 1.00D-01 BMatC= 1.52D-07 BMatP= 7.12D-07
 IDIUse=1 WtCom= 1.00D+00 WtEn= 0.00D+00
 Coeff-Com:  0.714D-05-0.110D-04 0.332D-04 0.750D-04-0.184D-03 0.216D-03
 Coeff-Com:  0.286D-02 0.897D-02 0.256D-02-0.749D-01-0.832D-01 0.263D+00
 Coeff-Com:  0.881D+00
 Coeff:      0.714D-05-0.110D-04 0.332D-04 0.750D-04-0.184D-03 0.216D-03
 Coeff:      0.286D-02 0.897D-02 0.256D-02-0.749D-01-0.832D-01 0.263D+00
 Coeff:      0.881D+00
 Gap=     0.255 Goal=   None    Shift=    0.000
 RMSDP=1.30D-06 MaxDP=1.94D-04 DE=-1.89D-06 OVMax= 5.76D-04

 Cycle  14  Pass 1  IDiag  1:
 RMSU=  5.49D-07    CP:  4.10D-01  1.74D-03  7.51D-01  3.08D-01  5.28D-01
                    CP:  1.16D+00  1.00D+00  1.06D+00  1.52D+00  1.57D+00
                    CP:  1.58D+00  1.39D+00  1.41D+00
 E= -3594.72404664851     Delta-E=       -0.000000512284 Rises=F Damp=F
 DIIS: error= 1.72D-06 at cycle  14 NSaved=  14.
 NSaved=14 IEnMin=14 EnMin= -3594.72404664851     IErMin=14 ErrMin= 1.72D-06
 ErrMax= 1.72D-06  0.00D+00 EMaxC= 1.00D-01 BMatC= 3.08D-08 BMatP= 1.52D-07
 IDIUse=1 WtCom= 1.00D+00 WtEn= 0.00D+00
 Coeff-Com:  0.290D-05-0.576D-05 0.728D-05 0.791D-05 0.102D-03 0.158D-03
 Coeff-Com:  0.170D-02 0.760D-02 0.120D-01-0.352D-01-0.839D-01-0.448D-01
 Coeff-Com:  0.348D+00 0.795D+00
 Coeff:      0.290D-05-0.576D-05 0.728D-05 0.791D-05 0.102D-03 0.158D-03
 Coeff:      0.170D-02 0.760D-02 0.120D-01-0.352D-01-0.839D-01-0.448D-01
 Coeff:      0.348D+00 0.795D+00
 Gap=     0.255 Goal=   None    Shift=    0.000
 RMSDP=5.28D-07 MaxDP=7.26D-05 DE=-5.12D-07 OVMax= 2.48D-04

 Cycle  15  Pass 1  IDiag  1:
 RMSU=  2.29D-07    CP:  4.10D-01  1.74D-03  7.51D-01  3.08D-01  5.28D-01
                    CP:  1.16D+00  1.00D+00  1.06D+00  1.53D+00  1.58D+00
                    CP:  1.61D+00  1.46D+00  1.64D+00  1.25D+00
 E= -3594.72404674049     Delta-E=       -0.000000091988 Rises=F Damp=F
 DIIS: error= 7.18D-07 at cycle  15 NSaved=  15.
 NSaved=15 IEnMin=15 EnMin= -3594.72404674049     IErMin=15 ErrMin= 7.18D-07
 ErrMax= 7.18D-07  0.00D+00 EMaxC= 1.00D-01 BMatC= 5.09D-09 BMatP= 3.08D-08
 IDIUse=1 WtCom= 1.00D+00 WtEn= 0.00D+00
 Coeff-Com:  0.138D-05-0.131D-05 0.746D-06-0.124D-04 0.558D-04 0.837D-04
 Coeff-Com:  0.322D-03 0.127D-02 0.285D-02-0.134D-03-0.118D-01-0.552D-01
 Coeff-Com: -0.353D-01 0.255D+00 0.843D+00
 Coeff:      0.138D-05-0.131D-05 0.746D-06-0.124D-04 0.558D-04 0.837D-04
 Coeff:      0.322D-03 0.127D-02 0.285D-02-0.134D-03-0.118D-01-0.552D-01
 Coeff:     -0.353D-01 0.255D+00 0.843D+00
 Gap=     0.255 Goal=   None    Shift=    0.000
 RMSDP=2.23D-07 MaxDP=2.97D-05 DE=-9.20D-08 OVMax= 9.91D-05

 Cycle  16  Pass 1  IDiag  1:
 RMSU=  1.06D-07    CP:  4.10D-01  1.74D-03  7.51D-01  3.08D-01  5.28D-01
                    CP:  1.16D+00  1.00D+00  1.06D+00  1.53D+00  1.58D+00
                    CP:  1.62D+00  1.48D+00  1.74D+00  1.44D+00  1.31D+00
 E= -3594.72404675335     Delta-E=       -0.000000012851 Rises=F Damp=F
 DIIS: error= 3.28D-07 at cycle  16 NSaved=  16.
 NSaved=16 IEnMin=16 EnMin= -3594.72404675335     IErMin=16 ErrMin= 3.28D-07
 ErrMax= 3.28D-07  0.00D+00 EMaxC= 1.00D-01 BMatC= 1.26D-09 BMatP= 5.09D-09
 IDIUse=1 WtCom= 1.00D+00 WtEn= 0.00D+00
 Coeff-Com:  0.632D-07 0.332D-06 0.268D-05-0.350D-05 0.561D-05 0.481D-05
 Coeff-Com: -0.212D-03-0.109D-02-0.169D-02 0.615D-02 0.120D-01-0.860D-02
 Coeff-Com: -0.771D-01-0.647D-01 0.326D+00 0.809D+00
 Coeff:      0.632D-07 0.332D-06 0.268D-05-0.350D-05 0.561D-05 0.481D-05
 Coeff:     -0.212D-03-0.109D-02-0.169D-02 0.615D-02 0.120D-01-0.860D-02
 Coeff:     -0.771D-01-0.647D-01 0.326D+00 0.809D+00
 Gap=     0.255 Goal=   None    Shift=    0.000
 RMSDP=1.15D-07 MaxDP=1.93D-05 DE=-1.29D-08 OVMax= 4.27D-05

 Cycle  17  Pass 1  IDiag  1:
 RMSU=  5.32D-08    CP:  4.10D-01  1.74D-03  7.51D-01  3.08D-01  5.28D-01
                    CP:  1.16D+00  1.00D+00  1.06D+00  1.53D+00  1.58D+00
                    CP:  1.62D+00  1.48D+00  1.77D+00  1.51D+00  1.54D+00
                    CP:  1.34D+00
 E= -3594.72404675686     Delta-E=       -0.000000003512 Rises=F Damp=F
 DIIS: error= 1.41D-07 at cycle  17 NSaved=  17.
 NSaved=17 IEnMin=17 EnMin= -3594.72404675686     IErMin=17 ErrMin= 1.41D-07
 ErrMax= 1.41D-07  0.00D+00 EMaxC= 1.00D-01 BMatC= 1.90D-10 BMatP= 1.26D-09
 IDIUse=1 WtCom= 1.00D+00 WtEn= 0.00D+00
 Coeff-Com: -0.139D-06 0.138D-06 0.125D-05-0.257D-06-0.614D-05-0.441D-05
 Coeff-Com: -0.978D-04-0.550D-03-0.113D-02 0.192D-02 0.584D-02 0.725D-02
 Coeff-Com: -0.174D-01-0.654D-01-0.367D-01 0.265D+00 0.841D+00
 Coeff:     -0.139D-06 0.138D-06 0.125D-05-0.257D-06-0.614D-05-0.441D-05
 Coeff:     -0.978D-04-0.550D-03-0.113D-02 0.192D-02 0.584D-02 0.725D-02
 Coeff:     -0.174D-01-0.654D-01-0.367D-01 0.265D+00 0.841D+00
 Gap=     0.255 Goal=   None    Shift=    0.000
 RMSDP=5.86D-08 MaxDP=5.11D-06 DE=-3.51D-09 OVMax= 1.67D-05

 Cycle  18  Pass 1  IDiag  1:
 RMSU=  3.52D-08    CP:  4.10D-01  1.74D-03  7.51D-01  3.08D-01  5.28D-01
                    CP:  1.16D+00  1.00D+00  1.06D+00  1.53D+00  1.58D+00
                    CP:  1.62D+00  1.49D+00  1.77D+00  1.52D+00  1.64D+00
                    CP:  1.55D+00  1.43D+00
 E= -3594.72404675754     Delta-E=       -0.000000000680 Rises=F Damp=F
 DIIS: error= 4.89D-08 at cycle  18 NSaved=  18.
 NSaved=18 IEnMin=18 EnMin= -3594.72404675754     IErMin=18 ErrMin= 4.89D-08
 ErrMax= 4.89D-08  0.00D+00 EMaxC= 1.00D-01 BMatC= 2.99D-11 BMatP= 1.90D-10
 IDIUse=1 WtCom= 1.00D+00 WtEn= 0.00D+00
 Coeff-Com: -0.636D-07 0.136D-06 0.898D-07 0.720D-07-0.358D-05 0.629D-06
 Coeff-Com:  0.640D-05-0.182D-04-0.192D-03-0.314D-03 0.228D-03 0.396D-02
 Coeff-Com:  0.600D-02-0.142D-01-0.647D-01-0.304D-01 0.281D+00 0.819D+00
 Coeff:     -0.636D-07 0.136D-06 0.898D-07 0.720D-07-0.358D-05 0.629D-06
 Coeff:      0.640D-05-0.182D-04-0.192D-03-0.314D-03 0.228D-03 0.396D-02
 Coeff:      0.600D-02-0.142D-01-0.647D-01-0.304D-01 0.281D+00 0.819D+00
 Gap=     0.255 Goal=   None    Shift=    0.000
 RMSDP=5.00D-08 MaxDP=5.87D-06 DE=-6.80D-10 OVMax= 7.39D-06

 Cycle  19  Pass 1  IDiag  1:
 RMSU=  3.10D-08    CP:  4.10D-01  1.74D-03  7.51D-01  3.08D-01  5.28D-01
                    CP:  1.16D+00  1.00D+00  1.06D+00  1.53D+00  1.58D+00
                    CP:  1.62D+00  1.49D+00  1.77D+00  1.53D+00  1.67D+00
                    CP:  1.67D+00  1.82D+00  1.76D+00
 E= -3594.72404675721     Delta-E=        0.000000000333 Rises=F Damp=F
 DIIS: error= 3.53D-08 at cycle  19 NSaved=  19.
 NSaved=19 IEnMin=18 EnMin= -3594.72404675754     IErMin=19 ErrMin= 3.53D-08
 ErrMax= 3.53D-08  0.00D+00 EMaxC= 1.00D-01 BMatC= 7.02D-12 BMatP= 2.99D-11
 IDIUse=1 WtCom= 1.00D+00 WtEn= 0.00D+00
 Coeff-Com:  0.288D-07 0.171D-07-0.148D-06 0.109D-07 0.362D-06 0.109D-05
 Coeff-Com:  0.206D-04 0.106D-03 0.161D-03-0.482D-03-0.115D-02-0.241D-03
 Coeff-Com:  0.634D-02 0.890D-02-0.178D-01-0.686D-01-0.668D-01 0.319D+00
 Coeff-Com:  0.821D+00
 Coeff:      0.288D-07 0.171D-07-0.148D-06 0.109D-07 0.362D-06 0.109D-05
 Coeff:      0.206D-04 0.106D-03 0.161D-03-0.482D-03-0.115D-02-0.241D-03
 Coeff:      0.634D-02 0.890D-02-0.178D-01-0.686D-01-0.668D-01 0.319D+00
 Coeff:      0.821D+00
 Gap=     0.255 Goal=   None    Shift=    0.000
 RMSDP=6.40D-08 MaxDP=6.19D-06 DE= 3.33D-10 OVMax= 3.68D-06

 Cycle  20  Pass 1  IDiag  1:
 RMSU=  3.15D-08    CP:  4.10D-01  1.74D-03  7.51D-01  3.08D-01  5.28D-01
                    CP:  1.16D+00  1.00D+00  1.06D+00  1.53D+00  1.58D+00
                    CP:  1.62D+00  1.49D+00  1.77D+00  1.53D+00  1.68D+00
                    CP:  1.74D+00  2.19D+00  2.72D+00  2.22D+00
 E= -3594.72404675821     Delta-E=       -0.000000001008 Rises=F Damp=F
 DIIS: error= 4.99D-08 at cycle  20 NSaved=  20.
 NSaved=20 IEnMin=20 EnMin= -3594.72404675821     IErMin=19 ErrMin= 3.53D-08
 ErrMax= 4.99D-08  0.00D+00 EMaxC= 1.00D-01 BMatC= 2.84D-12 BMatP= 7.02D-12
 IDIUse=1 WtCom= 1.00D+00 WtEn= 0.00D+00
 Coeff-Com:  0.261D-07-0.209D-07-0.588D-07 0.354D-08 0.576D-06 0.177D-06
 Coeff-Com:  0.714D-05 0.488D-04 0.891D-04-0.152D-03-0.521D-03-0.721D-03
 Coeff-Com:  0.206D-02 0.580D-02 0.866D-03-0.265D-01-0.677D-01 0.294D-01
 Coeff-Com:  0.361D+00 0.696D+00
 Coeff:      0.261D-07-0.209D-07-0.588D-07 0.354D-08 0.576D-06 0.177D-06
 Coeff:      0.714D-05 0.488D-04 0.891D-04-0.152D-03-0.521D-03-0.721D-03
 Coeff:      0.206D-02 0.580D-02 0.866D-03-0.265D-01-0.677D-01 0.294D-01
 Coeff:      0.361D+00 0.696D+00
 Gap=     0.255 Goal=   None    Shift=    0.000
 RMSDP=8.30D-08 MaxDP=9.39D-06 DE=-1.01D-09 OVMax= 1.44D-06

 Cycle  21  Pass 1  IDiag  1:
 Restarting incremental Fock formation.
 E= -3594.72404675750     Delta-E=        0.000000000713 Rises=F Damp=F
 DIIS: error= 1.84D-07 at cycle  21 NSaved=  20.
 NSaved=20 IEnMin=19 EnMin= -3594.72404675821     IErMin=18 ErrMin= 3.53D-08
 ErrMax= 1.84D-07  0.00D+00 EMaxC= 1.00D-01 BMatC= 7.16D-11 BMatP= 2.84D-12
 IDIUse=1 WtCom= 1.00D+00 WtEn= 0.00D+00
 Coeff-Com:  0.182D-07-0.443D-07 0.141D-08 0.543D-06 0.942D-07 0.629D-05
 Coeff-Com:  0.443D-04 0.822D-04-0.128D-03-0.467D-03-0.733D-03 0.173D-02
 Coeff-Com:  0.546D-02 0.206D-02-0.233D-01-0.665D-01 0.974D-02 0.319D+00
 Coeff-Com:  0.685D+00 0.674D-01
 Coeff:      0.182D-07-0.443D-07 0.141D-08 0.543D-06 0.942D-07 0.629D-05
 Coeff:      0.443D-04 0.822D-04-0.128D-03-0.467D-03-0.733D-03 0.173D-02
 Coeff:      0.546D-02 0.206D-02-0.233D-01-0.665D-01 0.974D-02 0.319D+00
 Coeff:      0.685D+00 0.674D-01
 Gap=     0.255 Goal=   None    Shift=    0.000
 RMSDP=3.98D-08 MaxDP=3.95D-06 DE= 7.13D-10 OVMax= 1.87D-07

 Cycle  22  Pass 1  IDiag  1:
 RMSU=  3.98D-08    CP:  1.00D+00
 E= -3594.72404675692     Delta-E=        0.000000000580 Rises=F Damp=F
 DIIS: error= 1.74D-07 at cycle  22 NSaved=  20.
 NSaved=20 IEnMin=18 EnMin= -3594.72404675821     IErMin=17 ErrMin= 3.53D-08
 ErrMax= 1.74D-07  0.00D+00 EMaxC= 1.00D-01 BMatC= 6.43D-11 BMatP= 2.84D-12
 IDIUse=1 WtCom= 1.00D+00 WtEn= 0.00D+00
 Coeff-Com: -0.407D-07 0.201D-08 0.562D-06 0.540D-07 0.538D-05 0.390D-04
 Coeff-Com:  0.740D-04-0.108D-03-0.414D-03-0.685D-03 0.143D-02 0.490D-02
 Coeff-Com:  0.267D-02-0.200D-01-0.613D-01-0.297D-02 0.276D+00 0.680D+00
 Coeff-Com: -0.972D+00 0.109D+01
 Coeff:     -0.407D-07 0.201D-08 0.562D-06 0.540D-07 0.538D-05 0.390D-04
 Coeff:      0.740D-04-0.108D-03-0.414D-03-0.685D-03 0.143D-02 0.490D-02
 Coeff:      0.267D-02-0.200D-01-0.613D-01-0.297D-02 0.276D+00 0.680D+00
 Coeff:     -0.972D+00 0.109D+01
 Gap=     0.255 Goal=   None    Shift=    0.000
 RMSDP=5.41D-08 MaxDP=5.12D-06 DE= 5.80D-10 OVMax= 2.31D-07

 Cycle  23  Pass 1  IDiag  1:
 RMSU=  3.78D-08    CP:  1.00D+00  1.97D+00
 E= -3594.72404675814     Delta-E=       -0.000000001217 Rises=F Damp=F
 DIIS: error= 1.76D-07 at cycle  23 NSaved=  20.
 NSaved=20 IEnMin=17 EnMin= -3594.72404675821     IErMin=16 ErrMin= 3.53D-08
 ErrMax= 1.76D-07  0.00D+00 EMaxC= 1.00D-01 BMatC= 6.03D-11 BMatP= 2.84D-12
 IDIUse=1 WtCom= 1.00D+00 WtEn= 0.00D+00
 Coeff-Com:  0.275D-07 0.567D-06-0.144D-07 0.444D-05 0.341D-04 0.662D-04
 Coeff-Com: -0.927D-04-0.371D-03-0.642D-03 0.127D-02 0.457D-02 0.305D-02
 Coeff-Com: -0.181D-01-0.584D-01-0.937D-02 0.257D+00 0.685D+00-0.844D+00
 Coeff-Com:  0.255D+00 0.725D+00
 Coeff:      0.275D-07 0.567D-06-0.144D-07 0.444D-05 0.341D-04 0.662D-04
 Coeff:     -0.927D-04-0.371D-03-0.642D-03 0.127D-02 0.457D-02 0.305D-02
 Coeff:     -0.181D-01-0.584D-01-0.937D-02 0.257D+00 0.685D+00-0.844D+00
 Coeff:      0.255D+00 0.725D+00
 Gap=     0.255 Goal=   None    Shift=    0.000
 RMSDP=4.83D-08 MaxDP=6.00D-06 DE=-1.22D-09 OVMax= 1.12D-07

 Cycle  24  Pass 1  IDiag  1:
 RMSU=  3.01D-08    CP:  1.00D+00  2.69D+00  1.66D+00
 E= -3594.72404675868     Delta-E=       -0.000000000542 Rises=F Damp=F
 DIIS: error= 1.79D-07 at cycle  24 NSaved=  20.
 NSaved=20 IEnMin=20 EnMin= -3594.72404675868     IErMin=15 ErrMin= 3.53D-08
 ErrMax= 1.79D-07  0.00D+00 EMaxC= 1.00D-01 BMatC= 5.92D-11 BMatP= 2.84D-12
 IDIUse=1 WtCom= 1.00D+00 WtEn= 0.00D+00
 Coeff-Com:  0.598D-06-0.116D-06 0.416D-05 0.336D-04 0.673D-04-0.828D-04
 Coeff-Com: -0.362D-03-0.668D-03 0.118D-02 0.455D-02 0.336D-02-0.176D-01
 Coeff-Com: -0.584D-01-0.111D-01 0.256D+00 0.689D+00-0.786D+00 0.200D+00
 Coeff-Com:  0.569D+00 0.151D+00
 Coeff:      0.598D-06-0.116D-06 0.416D-05 0.336D-04 0.673D-04-0.828D-04
 Coeff:     -0.362D-03-0.668D-03 0.118D-02 0.455D-02 0.336D-02-0.176D-01
 Coeff:     -0.584D-01-0.111D-01 0.256D+00 0.689D+00-0.786D+00 0.200D+00
 Coeff:      0.569D+00 0.151D+00
 Gap=     0.255 Goal=   None    Shift=    0.000
 RMSDP=8.40D-09 MaxDP=9.19D-07 DE=-5.42D-10 OVMax= 1.57D-08

 Error on total polarization charges =  0.05965
 SCF Done:  E(RwB97XD) =  -3594.72404676     A.U. after   24 cycles
            NFock= 24  Conv=0.84D-08     -V/T= 2.0266
 KE= 3.501493869701D+03 PE=-2.717336464585D+04 EE= 1.070099884215D+04
 SMD-CDS (non-electrostatic) energy       (kcal/mol) =      -8.60
 (included in total energy above)
 Leave Link  502 at Mon Feb 26 15:45:45 2024, MaxMem=  2147483648 cpu:    109345.6
 (Enter /cluster/apps/gaussian/g09/l601.exe)
 Copying SCF densities to generalized density rwf, IOpCl= 0 IROHF=0.

 **********************************************************************

            Population analysis using the SCF density.

 **********************************************************************

 Orbital symmetries:
       Occupied  (A) (A) (A) (A) (A) (A) (A) (A) (A) (A) (A) (A)
                 (A) (A) (A) (A) (A) (A) (A) (A) (A) (A) (A) (A)
                 (A) (A) (A) (A) (A) (A) (A) (A) (A) (A) (A) (A)
                 (A) (A) (A) (A) (A) (A) (A) (A) (A) (A) (A) (A)
                 (A) (A) (A) (A) (A) (A) (A) (A) (A) (A) (A) (A)
                 (A) (A) (A) (A) (A) (A) (A) (A) (A) (A) (A) (A)
                 (A) (A) (A) (A) (A) (A) (A) (A) (A) (A) (A) (A)
                 (A) (A) (A) (A) (A) (A) (A) (A) (A) (A) (A) (A)
                 (A) (A) (A) (A) (A) (A) (A) (A) (A) (A) (A) (A)
                 (A) (A) (A) (A) (A) (A) (A) (A) (A) (A) (A) (A)
                 (A) (A) (A) (A) (A) (A) (A) (A) (A) (A) (A) (A)
                 (A) (A) (A) (A) (A) (A) (A) (A) (A) (A) (A) (A)
                 (A) (A) (A) (A) (A) (A) (A) (A) (A) (A) (A) (A)
                 (A) (A) (A) (A) (A) (A) (A) (A) (A) (A) (A) (A)
                 (A) (A) (A) (A) (A) (A) (A) (A) (A) (A) (A) (A)
                 (A) (A) (A) (A) (A) (A) (A) (A) (A) (A) (A) (A)
                 (A) (A) (A) (A) (A) (A) (A) (A) (A) (A) (A) (A)
                 (A) (A) (A) (A) (A) (A)
       Virtual   (A) (A) (A) (A) (A) (A) (A) (A) (A) (A) (A) (A)
                 (A) (A) (A) (A) (A) (A) (A) (A) (A) (A) (A) (A)
                 (A) (A) (A) (A) (A) (A) (A) (A) (A) (A) (A) (A)
                 (A) (A) (A) (A) (A) (A) (A) (A) (A) (A) (A) (A)
                 (A) (A) (A) (A) (A) (A) (A) (A) (A) (A) (A) (A)
                 (A) (A) (A) (A) (A) (A) (A) (A) (A) (A) (A) (A)
                 (A) (A) (A) (A) (A) (A) (A) (A) (A) (A) (A) (A)
                 (A) (A) (A) (A) (A) (A) (A) (A) (A) (A) (A) (A)
                 (A) (A) (A) (A) (A) (A) (A) (A) (A) (A) (A) (A)
                 (A) (A) (A) (A) (A) (A) (A) (A) (A) (A) (A) (A)
                 (A) (A) (A) (A) (A) (A) (A) (A) (A) (A) (A) (A)
                 (A) (A) (A) (A) (A) (A) (A) (A) (A) (A) (A) (A)
                 (A) (A) (A) (A) (A) (A) (A) (A) (A) (A) (A) (A)
                 (A) (A) (A) (A) (A) (A) (A) (A) (A) (A) (A) (A)
                 (A) (A) (A) (A) (A) (A) (A) (A) (A) (A) (A) (A)
                 (A) (A) (A) (A) (A) (A) (A) (A) (A) (A) (A) (A)
                 (A) (A) (A) (A) (A) (A) (A) (A) (A) (A) (A) (A)
                 (A) (A) (A) (A) (A) (A) (A) (A) (A) (A) (A) (A)
                 (A) (A) (A) (A) (A) (A) (A) (A) (A) (A) (A) (A)
                 (A) (A) (A) (A) (A) (A) (A) (A) (A) (A) (A) (A)
                 (A) (A) (A) (A) (A) (A) (A) (A) (A) (A) (A) (A)
                 (A) (A) (A) (A) (A) (A) (A) (A) (A) (A) (A) (A)
                 (A) (A) (A) (A) (A) (A) (A) (A) (A) (A) (A) (A)
                 (A) (A) (A) (A) (A) (A) (A) (A) (A) (A) (A) (A)
                 (A) (A) (A) (A) (A) (A) (A) (A) (A) (A) (A) (A)
                 (A) (A) (A) (A) (A) (A) (A) (A) (A) (A) (A) (A)
                 (A) (A) (A) (A) (A) (A) (A) (A) (A) (A) (A) (A)
                 (A) (A) (A) (A) (A) (A) (A) (A) (A) (A) (A) (A)
                 (A) (A) (A) (A) (A) (A) (A) (A) (A) (A) (A) (A)
                 (A) (A) (A) (A) (A) (A) (A) (A) (A) (A) (A) (A)
                 (A) (A) (A) (A) (A) (A) (A) (A) (A) (A) (A) (A)
                 (A) (A) (A) (A) (A) (A) (A) (A) (A) (A) (A) (A)
                 (A) (A) (A) (A) (A) (A) (A) (A) (A) (A) (A) (A)
                 (A) (A) (A) (A) (A) (A) (A) (A) (A) (A) (A) (A)
                 (A) (A) (A) (A) (A) (A) (A) (A) (A) (A) (A) (A)
                 (A) (A) (A) (A) (A) (A) (A) (A) (A) (A) (A) (A)
                 (A) (A) (A) (A) (A) (A) (A) (A) (A) (A) (A) (A)
                 (A) (A) (A) (A) (A) (A) (A) (A) (A) (A) (A) (A)
                 (A) (A) (A) (A) (A) (A) (A) (A) (A) (A) (A) (A)
                 (A) (A) (A) (A) (A) (A) (A) (A) (A) (A) (A) (A)
                 (A) (A) (A) (A) (A) (A) (A) (A) (A) (A) (A) (A)
                 (A) (A) (A) (A) (A) (A) (A) (A) (A) (A) (A) (A)
                 (A) (A) (A) (A) (A) (A) (A) (A) (A) (A) (A) (A)
                 (A) (A) (A) (A) (A) (A) (A) (A) (A) (A) (A) (A)
                 (A) (A) (A) (A) (A) (A) (A) (A) (A) (A) (A) (A)
                 (A) (A) (A) (A) (A) (A) (A) (A) (A) (A) (A) (A)
                 (A) (A) (A) (A) (A) (A) (A) (A) (A) (A) (A) (A)
                 (A) (A) (A) (A) (A) (A) (A) (A) (A) (A) (A) (A)
                 (A) (A) (A) (A) (A) (A) (A) (A) (A) (A) (A) (A)
                 (A) (A) (A) (A) (A) (A) (A) (A) (A) (A) (A) (A)
                 (A) (A) (A) (A) (A) (A) (A) (A) (A) (A) (A) (A)
                 (A) (A) (A) (A) (A) (A) (A) (A) (A) (A) (A) (A)
                 (A) (A) (A) (A) (A) (A) (A) (A) (A) (A) (A) (A)
                 (A) (A) (A) (A) (A) (A) (A) (A) (A) (A) (A) (A)
                 (A) (A) (A) (A) (A) (A) (A) (A) (A) (A) (A) (A)
                 (A) (A) (A) (A) (A) (A) (A) (A) (A) (A) (A) (A)
                 (A) (A) (A) (A) (A) (A) (A) (A) (A) (A) (A) (A)
                 (A) (A) (A) (A) (A) (A) (A) (A) (A) (A) (A) (A)
                 (A) (A) (A) (A) (A) (A) (A) (A) (A) (A) (A) (A)
                 (A) (A) (A) (A) (A) (A) (A) (A) (A) (A) (A) (A)
                 (A) (A) (A) (A) (A) (A) (A) (A) (A) (A) (A) (A)
                 (A) (A) (A) (A) (A) (A) (A) (A) (A) (A) (A) (A)
                 (A) (A) (A) (A) (A) (A) (A) (A) (A) (A) (A) (A)
                 (A) (A) (A) (A) (A) (A) (A) (A) (A) (A) (A) (A)
                 (A) (A) (A) (A) (A) (A) (A) (A) (A) (A) (A) (A)
                 (A) (A) (A) (A) (A) (A) (A) (A) (A) (A) (A) (A)
                 (A) (A) (A) (A) (A) (A) (A) (A) (A) (A) (A) (A)
                 (A) (A) (A) (A) (A) (A) (A) (A) (A) (A) (A) (A)
                 (A) (A) (A) (A) (A) (A) (A) (A) (A) (A) (A) (A)
                 (A) (A) (A) (A) (A) (A) (A) (A) (A) (A) (A) (A)
                 (A) (A) (A) (A) (A) (A) (A) (A) (A) (A) (A) (A)
                 (A) (A) (A) (A) (A) (A) (A) (A) (A) (A) (A) (A)
                 (A) (A) (A) (A) (A) (A) (A) (A) (A) (A) (A) (A)
                 (A) (A) (A) (A) (A) (A) (A) (A) (A) (A) (A) (A)
                 (A) (A) (A) (A) (A) (A) (A) (A) (A) (A) (A) (A)
                 (A) (A) (A) (A) (A) (A) (A) (A) (A) (A) (A) (A)
                 (A) (A) (A) (A) (A) (A) (A) (A) (A) (A) (A) (A)
                 (A) (A) (A) (A) (A) (A) (A) (A) (A) (A) (A) (A)
                 (A) (A) (A) (A) (A) (A) (A) (A) (A) (A) (A) (A)
                 (A) (A) (A) (A) (A) (A) (A) (A) (A) (A) (A) (A)
                 (A) (A) (A) (A) (A) (A) (A) (A) (A) (A) (A) (A)
                 (A) (A) (A) (A) (A) (A) (A) (A) (A) (A) (A) (A)
                 (A) (A) (A) (A) (A) (A) (A) (A) (A) (A) (A) (A)
                 (A) (A) (A) (A) (A) (A) (A) (A) (A) (A) (A) (A)
                 (A) (A) (A) (A) (A) (A) (A) (A) (A) (A) (A) (A)
                 (A) (A) (A) (A) (A) (A) (A) (A) (A) (A) (A) (A)
                 (A) (A) (A) (A) (A) (A) (A) (A) (A) (A) (A) (A)
                 (A) (A) (A) (A) (A) (A) (A) (A) (A) (A) (A) (A)
                 (A) (A) (A) (A) (A) (A) (A) (A) (A) (A) (A) (A)
                 (A) (A) (A) (A) (A) (A) (A) (A) (A) (A) (A) (A)
                 (A) (A) (A) (A) (A) (A) (A) (A) (A) (A) (A) (A)
                 (A) (A) (A) (A) (A) (A) (A) (A) (A) (A) (A) (A)
                 (A) (A) (A) (A) (A) (A) (A) (A) (A) (A) (A) (A)
                 (A) (A) (A) (A) (A) (A) (A) (A) (A) (A) (A) (A)
                 (A) (A) (A) (A) (A) (A) (A) (A) (A) (A) (A) (A)
                 (A) (A) (A) (A) (A) (A) (A) (A) (A) (A) (A) (A)
                 (A) (A) (A) (A) (A) (A) (A) (A) (A) (A) (A) (A)
                 (A) (A) (A) (A) (A) (A) (A) (A) (A) (A) (A) (A)
                 (A) (A) (A) (A) (A) (A) (A) (A) (A) (A) (A) (A)
                 (A) (A) (A) (A) (A) (A) (A) (A) (A) (A) (A) (A)
                 (A) (A) (A) (A) (A) (A) (A) (A) (A) (A) (A) (A)
                 (A) (A) (A) (A) (A) (A) (A) (A) (A) (A) (A) (A)
                 (A) (A) (A) (A) (A) (A) (A) (A) (A) (A) (A) (A)
                 (A) (A) (A) (A) (A) (A) (A) (A) (A) (A) (A) (A)
                 (A) (A) (A) (A) (A) (A) (A) (A) (A) (A) (A) (A)
                 (A) (A) (A) (A) (A) (A) (A) (A) (A) (A) (A) (A)
                 (A) (A) (A) (A) (A) (A) (A) (A) (A) (A) (A) (A)
                 (A) (A) (A) (A) (A) (A) (A) (A) (A) (A) (A) (A)
                 (A) (A) (A) (A) (A) (A) (A) (A) (A) (A) (A) (A)
                 (A) (A) (A) (A) (A) (A) (A) (A) (A) (A) (A) (A)
                 (A) (A) (A) (A) (A) (A) (A) (A) (A) (A) (A) (A)
                 (A) (A) (A) (A) (A) (A) (A) (A) (A) (A) (A) (A)
                 (A) (A) (A) (A) (A) (A) (A) (A) (A) (A) (A) (A)
                 (A) (A) (A) (A) (A) (A) (A) (A) (A) (A) (A) (A)
                 (A) (A) (A) (A) (A) (A) (A) (A) (A) (A) (A) (A)
                 (A) (A) (A) (A) (A) (A) (A) (A) (A) (A) (A) (A)
                 (A) (A) (A) (A) (A) (A) (A) (A) (A) (A) (A) (A)
                 (A) (A) (A) (A) (A) (A) (A) (A) (A) (A) (A) (A)
                 (A) (A) (A) (A) (A) (A) (A) (A) (A) (A) (A) (A)
                 (A) (A) (A) (A) (A) (A) (A) (A) (A) (A) (A) (A)
                 (A) (A) (A) (A) (A) (A) (A) (A) (A) (A) (A) (A)
                 (A) (A) (A) (A) (A) (A) (A) (A) (A) (A) (A) (A)
                 (A) (A) (A) (A) (A) (A) (A) (A) (A) (A) (A) (A)
                 (A) (A) (A) (A) (A) (A) (A) (A) (A) (A) (A) (A)
                 (A) (A) (A) (A) (A) (A) (A) (A) (A) (A) (A) (A)
                 (A) (A) (A) (A) (A) (A) (A) (A) (A) (A) (A) (A)
                 (A) (A) (A) (A) (A) (A) (A) (A) (A) (A) (A) (A)
                 (A) (A) (A) (A) (A) (A) (A) (A) (A) (A) (A) (A)
                 (A) (A) (A) (A) (A) (A) (A) (A) (A) (A) (A) (A)
                 (A) (A) (A) (A) (A) (A) (A) (A) (A) (A) (A) (A)
                 (A) (A) (A) (A) (A) (A) (A) (A) (A) (A) (A) (A)
                 (A) (A) (A) (A) (A) (A) (A) (A) (A) (A) (A) (A)
                 (A) (A) (A) (A) (A) (A) (A) (A) (A) (A) (A) (A)
                 (A) (A) (A) (A) (A) (A) (A) (A) (A) (A) (A) (A)
                 (A) (A) (A) (A) (A) (A) (A) (A) (A) (A) (A) (A)
                 (A) (A) (A) (A) (A) (A) (A) (A) (A) (A) (A) (A)
                 (A) (A) (A) (A) (A) (A) (A) (A) (A) (A) (A) (A)
                 (A) (A) (A) (A) (A) (A) (A) (A) (A) (A) (A) (A)
                 (A) (A) (A) (A) (A) (A) (A) (A) (A) (A) (A) (A)
                 (A) (A) (A) (A) (A) (A) (A) (A) (A) (A) (A) (A)
                 (A) (A) (A) (A) (A) (A) (A) (A) (A) (A) (A) (A)
                 (A) (A) (A) (A) (A) (A) (A) (A) (A) (A) (A) (A)
                 (A) (A)
 The electronic state is 1-A.
 Alpha  occ. eigenvalues -- -101.70540 -89.23299 -77.24124 -24.84710 -24.84690
 Alpha  occ. eigenvalues --  -24.84345 -24.84059 -19.27888 -19.25537 -19.25468
 Alpha  occ. eigenvalues --  -14.49177 -10.39630 -10.39535 -10.39381 -10.39308
 Alpha  occ. eigenvalues --  -10.37201 -10.35469 -10.34503 -10.34307 -10.32550
 Alpha  occ. eigenvalues --  -10.32085 -10.30598 -10.30407 -10.30335 -10.30284
 Alpha  occ. eigenvalues --  -10.30258 -10.30141 -10.30092 -10.30042 -10.29988
 Alpha  occ. eigenvalues --  -10.29867 -10.29757 -10.29554 -10.29344 -10.29090
 Alpha  occ. eigenvalues --  -10.28983 -10.28822 -10.27756 -10.27725 -10.27721
 Alpha  occ. eigenvalues --  -10.27720 -10.27687 -10.27585 -10.27564 -10.27511
 Alpha  occ. eigenvalues --  -10.27427 -10.27393 -10.27041 -10.27029 -10.26985
 Alpha  occ. eigenvalues --  -10.26963 -10.26801  -9.59095  -8.23439  -7.33776
 Alpha  occ. eigenvalues --   -7.32860  -7.32826  -6.68505  -6.18324  -6.18164
 Alpha  occ. eigenvalues --   -6.18137  -4.83213  -4.83191  -4.82857  -3.53409
 Alpha  occ. eigenvalues --   -2.22219  -2.21340  -2.19514  -1.37366  -1.36454
 Alpha  occ. eigenvalues --   -1.35526  -1.35038  -1.22485  -1.17433  -1.11651
 Alpha  occ. eigenvalues --   -1.05732  -0.98243  -0.97530  -0.97149  -0.96374
 Alpha  occ. eigenvalues --   -0.96325  -0.96111  -0.89892  -0.89536  -0.88689
 Alpha  occ. eigenvalues --   -0.88350  -0.88190  -0.87759  -0.87531  -0.86991
[...]
 Alpha virt. eigenvalues --    3.25124   3.25353   3.25690   3.25915   3.26046
 Alpha virt. eigenvalues --    3.26145   3.26468   3.26608   3.27396   3.27826
 Alpha virt. eigenvalues --    3.28280   3.28345   3.28787   3.29040   3.29150
 Alpha virt. eigenvalues --    3.29217   3.29396   3.29527   3.30064   3.30201
 Alpha virt. eigenvalues --    3.30409   3.31230   3.31285   3.31601   3.31790
 Alpha virt. eigenvalues --    3.32519   3.32697   3.32994   3.33191   3.33671
 Alpha virt. eigenvalues --    3.33928   3.33983   3.34283   3.34326   3.34425
 Alpha virt. eigenvalues --    3.35109   3.35322   3.35501   3.36115   3.36350
 Alpha virt. eigenvalues --    3.36470   3.36762   3.37029   3.37379   3.37460
 Alpha virt. eigenvalues --    3.37742   3.38119   3.38281   3.38411   3.39111
 Alpha virt. eigenvalues --    3.39325   3.39742   3.39892   3.40025   3.40124
 Alpha virt. eigenvalues --    3.40499   3.40602   3.40725   3.41061   3.41147
 Alpha virt. eigenvalues --    3.41510   3.41643   3.41744   3.42145   3.42453
 Alpha virt. eigenvalues --    3.42520   3.42727   3.42923   3.42967   3.43675
 Alpha virt. eigenvalues --    3.43873   3.44033   3.44291   3.44563   3.44767
 Alpha virt. eigenvalues --    3.45175   3.45414   3.45642   3.46401   3.46424
 Alpha virt. eigenvalues --    3.46709   3.46961   3.47433   3.47948   3.48085
 Alpha virt. eigenvalues --    3.48379   3.48449   3.48747   3.49304   3.49359
 Alpha virt. eigenvalues --    3.49595   3.50263   3.50500   3.50753   3.50812
 Alpha virt. eigenvalues --    3.51127   3.51190   3.51646   3.51848   3.52474
 Alpha virt. eigenvalues --    3.52801   3.53230   3.53569   3.53822   3.54225
 Alpha virt. eigenvalues --    3.54353   3.54544   3.54796   3.54850   3.55152
 Alpha virt. eigenvalues --    3.55459   3.55920   3.55937   3.56238   3.56535
 Alpha virt. eigenvalues --    3.56881   3.57143   3.57544   3.57811   3.57927
 Alpha virt. eigenvalues --    3.58380   3.58448   3.58924   3.59145   3.59484
 Alpha virt. eigenvalues --    3.59705   3.60268   3.60451   3.60887   3.61056
 Alpha virt. eigenvalues --    3.61525   3.61670   3.62078   3.62394   3.62696
 Alpha virt. eigenvalues --    3.63008   3.63560   3.64239   3.64516   3.64808
 Alpha virt. eigenvalues --    3.65127   3.65933   3.65997   3.66391   3.66794
 Alpha virt. eigenvalues --    3.67174   3.67488   3.67757   3.67977   3.68302
 Alpha virt. eigenvalues --    3.68908   3.69502   3.69905   3.70364   3.70607
 Alpha virt. eigenvalues --    3.70984   3.71404   3.71541   3.71837   3.72352
 Alpha virt. eigenvalues --    3.72550   3.72741   3.73114   3.73669   3.73857
 Alpha virt. eigenvalues --    3.74269   3.74449   3.74924   3.75244   3.75441
 Alpha virt. eigenvalues --    3.75746   3.76044   3.76507   3.76768   3.76930
 Alpha virt. eigenvalues --    3.77883   3.78146   3.78435   3.78875   3.79101
 Alpha virt. eigenvalues --    3.79315   3.79841   3.80101   3.80555   3.80715
 Alpha virt. eigenvalues --    3.81010   3.81446   3.81896   3.82288   3.82388
 Alpha virt. eigenvalues --    3.82996   3.83549   3.83858   3.84111   3.85035
 Alpha virt. eigenvalues --    3.85253   3.85728   3.86101   3.86517   3.86846
 Alpha virt. eigenvalues --    3.87429   3.87659   3.87804   3.88378   3.88468
 Alpha virt. eigenvalues --    3.89438   3.89557   3.89902   3.90082   3.90281
 Alpha virt. eigenvalues --    3.90798   3.90956   3.91660   3.92159   3.93161
 Alpha virt. eigenvalues --    3.93440   3.93963   3.95100   3.95162   3.95678
 Alpha virt. eigenvalues --    3.96396   3.96690   3.96953   3.97430   3.97589
 Alpha virt. eigenvalues --    3.98027   3.98580   3.99167   4.00183   4.00710
 Alpha virt. eigenvalues --    4.01147   4.03302   4.03757   4.04638   4.04977
 Alpha virt. eigenvalues --    4.05423   4.05868   4.07060   4.07361   4.07460
 Alpha virt. eigenvalues --    4.08516   4.09220   4.10263   4.10683   4.11099
 Alpha virt. eigenvalues --    4.12024   4.12593   4.13111   4.13761   4.14861
 Alpha virt. eigenvalues --    4.14927   4.15202   4.15343   4.15710   4.15925
 Alpha virt. eigenvalues --    4.16181   4.16750   4.17411   4.17789   4.18730
 Alpha virt. eigenvalues --    4.19040   4.19690   4.19995   4.20122   4.20141
 Alpha virt. eigenvalues --    4.21480   4.22181   4.22870   4.23156   4.23254
 Alpha virt. eigenvalues --    4.23738   4.24162   4.24222   4.24634   4.25124
 Alpha virt. eigenvalues --    4.25277   4.25874   4.26675   4.26994   4.27127
 Alpha virt. eigenvalues --    4.27673   4.27903   4.28162   4.28330   4.28530
 Alpha virt. eigenvalues --    4.28868   4.29150   4.29527   4.30211   4.30582
 Alpha virt. eigenvalues --    4.30915   4.31676   4.32033   4.32357   4.32977
 Alpha virt. eigenvalues --    4.33435   4.33465   4.33803   4.34875   4.35042
 Alpha virt. eigenvalues --    4.35468   4.35689   4.35938   4.36309   4.37086
 Alpha virt. eigenvalues --    4.37475   4.37751   4.38319   4.38831   4.39241
 Alpha virt. eigenvalues --    4.39760   4.39968   4.40130   4.40602   4.40876
 Alpha virt. eigenvalues --    4.41367   4.41624   4.41979   4.42364   4.43490
 Alpha virt. eigenvalues --    4.43866   4.44114   4.44773   4.45171   4.45814
 Alpha virt. eigenvalues --    4.46409   4.46962   4.47138   4.47532   4.48205
 Alpha virt. eigenvalues --    4.49035   4.49961   4.50596   4.51554   4.52272
 Alpha virt. eigenvalues --    4.52580   4.52877   4.53443   4.53873   4.54025
 Alpha virt. eigenvalues --    4.54099   4.55027   4.55470   4.56249   4.56680
 Alpha virt. eigenvalues --    4.56905   4.57919   4.58386   4.59146   4.59444
 Alpha virt. eigenvalues --    4.59939   4.60481   4.61780   4.62233   4.62841
 Alpha virt. eigenvalues --    4.63314   4.63569   4.63857   4.64250   4.64950
 Alpha virt. eigenvalues --    4.66635   4.67605   4.67890   4.68222   4.70356
 Alpha virt. eigenvalues --    4.70996   4.71407   4.71434   4.72181   4.72795
 Alpha virt. eigenvalues --    4.73595   4.74348   4.75382   4.76334   4.77504
 Alpha virt. eigenvalues --    4.81394   4.81650   4.81974   4.82464   4.82899
 Alpha virt. eigenvalues --    4.84312   4.84474   4.85126   4.85387   4.85483
 Alpha virt. eigenvalues --    4.86523   4.86656   4.87568   4.87941   4.88863
 Alpha virt. eigenvalues --    4.90485   4.92009   4.92965   4.94132   4.95721
 Alpha virt. eigenvalues --    4.96928   4.97600   4.98249   4.99793   5.00245
 Alpha virt. eigenvalues --    5.01852   5.01893   5.03126   5.04917   5.05611
 Alpha virt. eigenvalues --    5.08746   5.09354   5.10143   5.11845   5.12664
 Alpha virt. eigenvalues --    5.15234   5.16101   5.17408   5.18221   5.18892
 Alpha virt. eigenvalues --    5.20275   5.22697   5.23592   5.23852   5.24948
 Alpha virt. eigenvalues --    5.25930   5.29031   5.30325   5.30505   5.31170
 Alpha virt. eigenvalues --    5.32602   5.33113   5.33733   5.34198   5.35112
 Alpha virt. eigenvalues --    5.35200   5.35623   5.36569   5.37939   5.39597
 Alpha virt. eigenvalues --    5.40747   5.41217   5.41867   5.42253   5.42579
 Alpha virt. eigenvalues --    5.43334   5.43730   5.44547   5.45596   5.48337
 Alpha virt. eigenvalues --    5.49859   5.52112   5.52549   5.54791   5.55431
 Alpha virt. eigenvalues --    5.56356   5.59858   5.61618   5.62459   5.63067
 Alpha virt. eigenvalues --    5.63744   5.64606   5.65595   5.65999   5.68010
 Alpha virt. eigenvalues --    5.70095   5.71736   5.72376   5.73002   5.74110
 Alpha virt. eigenvalues --    5.74608   5.78292   5.79104   5.79882   5.81656
 Alpha virt. eigenvalues --    5.83596   5.87140   5.87842   5.91755   6.02339
 Alpha virt. eigenvalues --    6.09672   6.12563   6.15746   6.42740   6.46997
 Alpha virt. eigenvalues --    6.48393   6.51158   6.55561   6.64523   6.74904
 Alpha virt. eigenvalues --    6.80167   6.88776   6.89918   6.90601   6.92983
 Alpha virt. eigenvalues --    6.93471   6.93881   6.94281   6.94414   6.94791
 Alpha virt. eigenvalues --    6.95273   6.95480   6.96574   6.96762   7.00057
 Alpha virt. eigenvalues --    7.00218   7.04037   7.05697   7.07362   7.08268
 Alpha virt. eigenvalues --    7.13331   7.14254   7.17781   7.23868   7.27886
 Alpha virt. eigenvalues --    7.28675   7.29011   7.36388   7.38969   7.41801
 Alpha virt. eigenvalues --    7.48774   7.49276   7.52602   7.57144   7.62642
 Alpha virt. eigenvalues --    7.74289   7.76882   8.03015   8.10629   8.16238
 Alpha virt. eigenvalues --    8.21306   8.38814   8.42127   8.44619   8.49157
 Alpha virt. eigenvalues --    8.56054   8.63956   8.65969   8.77951   8.80050
 Alpha virt. eigenvalues --    8.82888   8.87985   8.90766   8.94255   8.99563
 Alpha virt. eigenvalues --    9.02288   9.10007   9.10869   9.17251   9.18171
 Alpha virt. eigenvalues --    9.42041   9.48606   9.61907   9.87287  10.87245
 Alpha virt. eigenvalues --   10.95491  11.36973  16.28712  22.09772  22.37895
 Alpha virt. eigenvalues --   22.40572  22.42600  22.49517  22.51085  22.51347
 Alpha virt. eigenvalues --   22.52572  22.53099  22.60656  22.63115  22.66661
 Alpha virt. eigenvalues --   22.66939  22.68514  22.71195  22.76264  22.77710
 Alpha virt. eigenvalues --   22.88499  22.95882  22.98241  22.98798  22.99549
 Alpha virt. eigenvalues --   22.99904  23.03863  23.06563  23.06930  23.08099
 Alpha virt. eigenvalues --   23.10455  23.13370  23.14050  23.14437  23.14943
 Alpha virt. eigenvalues --   23.16348  23.16559  23.20873  23.23447  23.30824
 Alpha virt. eigenvalues --   23.52502  23.59637  23.60401  23.62968  23.86141
 Alpha virt. eigenvalues --   25.72965  32.87227  32.98547  43.85699  44.09385
 Alpha virt. eigenvalues --   44.37810  57.31113  57.47394  57.56995  57.68322
 Alpha virt. eigenvalues --  107.21371
          Condensed to atoms (all electrons):
 Mulliken charges:
               1
     1  Pd  -0.201191
     2  C    0.038646
     3  C   -0.183821
     4  H    0.223367
     5  C   -0.278981
     6  H    0.155001
     7  C    0.398766
     8  C   -0.443123
     9  H    0.177758
    10  C    0.049399
    11  C   -0.068227
    12  C    0.292763
    13  C    0.169702
    14  C    0.188874
    15  C    0.206111
    16  C   -0.035403
    17  N   -0.260680
    18  S    0.839786
    19  O   -0.496542
    20  O   -0.483113
    21  C   -0.172534
    22  Cl  -0.104813
    23  H    0.215611
    24  H    0.198031
    25  F   -0.194515
    26  F   -0.195984
    27  F   -0.197638
    28  F   -0.217210
    29  O   -0.305366
    30  C   -0.227500
    31  H    0.136268
    32  H    0.135509
    33  H    0.157965
    34  P    0.325811
    35  C   -0.282160
    36  C    0.293881
    37  C    0.154257
    38  C   -0.433257
    39  C   -0.420017
    40  C    0.232099
    41  H    0.138060
    42  H    0.136246
    43  C   -0.132453
    44  C    0.104062
    45  C    0.195188
    46  C   -0.374010
    47  C   -0.443703
    48  C    0.207272
    49  H    0.131894
    50  H    0.129571
    51  C   -0.225857
    52  C    0.175570
    53  C    0.206249
    54  C   -0.398108
    55  C   -0.421901
    56  C    0.224043
    57  H    0.137079
    58  H    0.136502
    59  C   -0.398364
    60  H    0.176242
    61  H    0.144761
    62  H    0.170250
    63  C   -0.299894
    64  H    0.133258
    65  H    0.145653
    66  H    0.140589
    67  C   -0.389114
    68  H    0.155691
    69  H    0.148877
    70  H    0.170307
    71  C   -0.388132
    72  H    0.162601
    73  H    0.158674
    74  H    0.168738
    75  C   -0.406606
    76  H    0.146314
    77  H    0.148875
    78  H    0.142468
    79  C   -0.381654
    80  H    0.164245
    81  H    0.138964
    82  H    0.150254
    83  C   -0.406032
    84  H    0.151289
    85  H    0.144970
    86  H    0.145353
    87  C   -0.309874
    88  H    0.136119
    89  H    0.146331
    90  H    0.145922
    91  C   -0.408430
    92  H    0.142806
    93  H    0.145420
    94  H    0.149895
 Sum of Mulliken charges =   0.00000
 Mulliken charges with hydrogens summed into heavy atoms:
               1
     1  Pd  -0.201191
     2  C    0.038646
     3  C    0.039546
     5  C   -0.123980
     7  C    0.398766
     8  C   -0.265364
    10  C    0.049399
    11  C   -0.068227
    12  C    0.292763
    13  C    0.169702
    14  C    0.188874
    15  C    0.206111
    16  C   -0.035403
    17  N   -0.260680
    18  S    0.839786
    19  O   -0.496542
    20  O   -0.483113
    21  C    0.241109
    22  Cl  -0.104813
    25  F   -0.194515
    26  F   -0.195984
    27  F   -0.197638
    28  F   -0.217210
    29  O   -0.305366
    30  C    0.202241
    34  P    0.325811
    35  C   -0.282160
    36  C    0.293881
    37  C    0.154257
    38  C   -0.295197
    39  C   -0.283771
    40  C    0.232099
    43  C   -0.132453
    44  C    0.104062
    45  C    0.195188
    46  C   -0.242116
    47  C   -0.314132
    48  C    0.207272
    51  C   -0.225857
    52  C    0.175570
    53  C    0.206249
    54  C   -0.261030
    55  C   -0.285399
    56  C    0.224043
    59  C    0.092889
    63  C    0.119606
    67  C    0.085761
    71  C    0.101881
    75  C    0.031050
    79  C    0.071809
    83  C    0.035580
    87  C    0.118497
    91  C    0.029691
 Electronic spatial extent (au):  <R**2>=          32657.8254
 Charge=              0.0000 electrons
 Dipole moment (field-independent basis, Debye):
    X=              7.9688    Y=              3.9514    Z=              5.4171  Tot=             10.4144
 Quadrupole moment (field-independent basis, Debye-Ang):
   XX=           -334.8219   YY=           -326.2827   ZZ=           -339.9449
   XY=            -24.3932   XZ=            -14.3320   YZ=             -5.1699
 Traceless Quadrupole moment (field-independent basis, Debye-Ang):
   XX=             -1.1387   YY=              7.4005   ZZ=             -6.2617
   XY=            -24.3932   XZ=            -14.3320   YZ=             -5.1699
 Octapole moment (field-independent basis, Debye-Ang**2):
  XXX=             54.8592  YYY=              9.6088  ZZZ=             79.9993  XYY=             23.8982
  XXY=             47.5245  XXZ=             -8.5990  XZZ=             37.9593  YZZ=              9.3350
  YYZ=             -7.4142  XYZ=              4.9943
 Hexadecapole moment (field-independent basis, Debye-Ang**3):
 XXXX=         -21012.4104 YYYY=         -11270.1870 ZZZZ=          -9696.0294 XXXY=           -296.5110
 XXXZ=           -294.0249 YYYX=             27.1004 YYYZ=             75.8570 ZZZX=           -162.1898
 ZZZY=            -45.4643 XXYY=          -5556.1678 XXZZ=          -4920.7823 YYZZ=          -3219.1191
 XXYZ=             69.0888 YYXZ=           -104.4949 ZZXY=           -383.8712
 N-N= 9.376147887238D+03 E-N=-2.717336464603D+04  KE= 3.501493869701D+03
 No NMR shielding tensors so no spin-rotation constants.
 Leave Link  601 at Mon Feb 26 15:45:47 2024, MaxMem=  2147483648 cpu:        16.2
 (Enter /cluster/apps/gaussian/g09/l9999.exe)
 1\1\GINC-EU-G5-015-3\SP\RwB97XD\GenECP\C41H41Cl1F4N1O3P1Pd1S1\SROEDIGE
 R\26-Feb-2024\0\\#p sp geom=allcheck scrf(solvent=dichloromethane,smd)
  wb97xd genecp temperature=313 integral(grid=ultrafine)\\Title Card Re
 quired\\0,1\Pd,0,0.0846954987,-0.4131346235,0.8356717516\C,0,1.4528692
 757,0.9813793486,0.2248328261\C,0,1.1065307195,2.298362386,0.565071307
 1\H,0,0.5492772945,2.5074544921,1.4766340408\C,0,1.4202083261,3.326148
 686,-0.3115611896\H,0,1.0879079479,4.3458938282,-0.1095813313\C,0,2.13
 67660513,3.0787451048,-1.4957308325\C,0,2.6247178049,1.7976868503,-1.7
 511206565\H,0,3.2777260951,1.5951504876,-2.5979460448\C,0,2.3293209036
 ,0.7542716806,-0.8596220739\C,0,2.9750670378,-0.5438960134,-0.80938754
 28\C,0,3.688470608,-1.2043772122,-1.804411836\C,0,4.277738477,-2.43780
 19723,-1.5490429822\C,0,4.1393420661,-3.0275067007,-0.2914048592\C,0,3
 .4088596546,-2.3967679206,0.7152095215\C,0,2.8582973937,-1.139467892,0
 .4708264795\N,0,2.0599122873,-0.4063135419,1.3642186763\S,0,2.62740913
 32,0.1669428653,2.8269104316\O,0,1.5092967695,0.8800733546,3.430557373
 1\O,0,3.3451381708,-0.8731596761,3.5360220196\C,0,3.8179218884,1.46019
 85186,2.4018071346\Cl,0,5.2473570513,0.8463874734,1.5811474417\H,0,4.0
 971331737,1.9023365961,3.3681117396\H,0,3.3023899296,2.1946699825,1.76
 93491309\F,0,3.2266104435,-3.0373897774,1.8531105433\F,0,4.661931728,-
 4.2230270244,-0.0753309018\F,0,4.9467488488,-3.0716639872,-2.499021910
 5\F,0,3.8016018824,-0.6870388063,-3.0262354056\O,0,2.342446108,4.14614
 50643,-2.2992521591\C,0,3.0793070845,3.9608811973,-3.4731330651\H,0,2.
 6103937534,3.213859639,-4.1388338018\H,0,4.1161980642,3.6418266156,-3.
 264169645\H,0,3.104946287,4.9298154196,-3.987966645\P,0,-2.018085205,-
 0.057631841,-0.0834699449\C,0,-2.4042273346,-0.8745312424,-1.707990558
 3\C,0,-1.3794914956,-1.5516369846,-2.4189033056\C,0,-3.7275535501,-0.9
 341386783,-2.2116401628\C,0,-1.715869204,-2.3157253134,-3.5412858236\C
 ,0,-4.0046507439,-1.7083388028,-3.3403615793\C,0,-3.0210836338,-2.4308
 523417,-4.011508568\H,0,-0.9118410332,-2.8315921142,-4.0733533375\H,0,
 -5.0328417682,-1.7314457464,-3.7131906064\C,0,-2.131721061,1.773520851
 6,-0.1304503836\C,0,-2.0451347158,2.4431742684,1.1203749258\C,0,-2.079
 5863638,2.5318051494,-1.3242228952\C,0,-2.0530245543,3.840126093,1.142
 0821691\C,0,-2.0705299336,3.9266088897,-1.2363403384\C,0,-2.0867951966
 ,4.6071428684,-0.0199847772\H,0,-2.0040955018,4.3419731464,2.112864086
 7\H,0,-2.0293396367,4.5008580272,-2.1663044006\C,0,-3.317565321,-0.788
 9940232,1.0228543865\C,0,-4.4833542232,-0.1656889051,1.527295385\C,0,-
 3.0513783321,-2.1383087519,1.3932653232\C,0,-5.3290734656,-0.893842270
 8,2.3770282996\C,0,-3.935257078,-2.8132107776,2.2321125806\C,0,-5.0840
 2469,-2.2099407018,2.7465248801\H,0,-6.2258518551,-0.3948431708,2.7569
 052334\H,0,-3.7111138036,-3.8501911067,2.4980743445\C,0,-1.8710162774,
 1.7327369215,2.4310249624\H,0,-0.9584820121,1.1025055247,2.417212807\H
 ,0,-1.7614303012,2.456884654,3.248983683\H,0,-2.6949891536,1.053671817
 ,2.6834077224\C,0,0.0795862046,-1.470537532,-2.0876129797\H,0,0.308596
 8681,-1.8582831933,-1.0794987058\H,0,0.6691496655,-2.0447795159,-2.814
 7299256\H,0,0.4453104061,-0.4342672047,-2.102044519\C,0,-1.8398678218,
 -2.8965291681,0.929639506\H,0,-0.9005659832,-2.4441782906,1.3130308893
 \H,0,-1.8669910249,-3.9291740802,1.3024291245\H,0,-1.7572998729,-2.933
 2415838,-0.1661788326\C,0,-4.9364157617,1.2451352327,1.2549744825\H,0,
 -4.8013786015,1.8704058255,2.1519493408\H,0,-4.4041835498,1.7414586544
 ,0.4425177482\H,0,-6.010884055,1.2498287698,1.0192114946\C,0,-6.002582
 7817,-2.9577623056,3.6658633682\H,0,-6.3059671546,-3.921819747,3.22900
 34159\H,0,-5.5045099413,-3.1807077339,4.6232721457\H,0,-6.9116117667,-
 2.3812458619,3.886553394\C,0,-4.8685883253,-0.1523879529,-1.6371218695
 \H,0,-5.310081607,-0.6583549969,-0.7662215735\H,0,-4.5532045261,0.8467
 689974,-1.3127415027\H,0,-5.6590580333,-0.0282943814,-2.389894006\C,0,
 -3.3540908002,-3.2948617909,-5.1902401302\H,0,-3.6338612085,-4.3094847
 792,-4.860645468\H,0,-4.2042693062,-2.8915661044,-5.759258299\H,0,-2.4
 974689029,-3.3970417352,-5.8716612771\C,0,-1.9570542136,1.9372489875,-
 2.6995796515\H,0,-1.1000352134,1.2521282464,-2.7660570697\H,0,-2.84377
 32712,1.366997873,-3.0062750389\H,0,-1.7991499084,2.737164623,-3.43531
 34184\C,0,-2.1124652559,6.105853286,0.0282595446\H,0,-1.8206926121,6.4
 831766323,1.0185703747\H,0,-1.4342875332,6.5428039873,-0.7202889605\H,
 0,-3.1232594248,6.4898809617,-0.1878822434\\Version=ES64L-G09RevD.01\S
 tate=1-A\HF=-3594.7240468\RMSD=8.399e-09\Dipole=-3.1415402,1.5675657,-
 2.1122915\Quadrupole=-0.9120898,5.4572618,-4.545172,18.2126115,-10.553
 3643,3.8522678\PG=C01 [X(C41H41Cl1F4N1O3P1Pd1S1)]\\@


 IT IS WELL TO REMEMBER THAT MAN IS A PART OF NATURE AND THAT HIS WORKS,
 WHATEVER THEY MAY BE, ARE NO MORE "UNNATURAL" THAN 
 THE FLIGHT OF AN EAGLE OR THE PASSAGE OF A TORNADO.

                                    -- CHARLES MCCARRY IN "THE GREAT SOUTHWEST"
 Job cpu time:       1 days  6 hours 29 minutes 58.3 seconds.
 File lengths (MBytes):  RWF=   2588 Int=      0 D2E=      0 Chk=    158 Scr=      1
 Normal termination of Gaussian 09 at Mon Feb 26 15:45:48 2024.
