
                                 *****************
                                 * O   R   C   A *
                                 *****************

           --- An Ab Initio, DFT and Semiempirical electronic structure package ---

                  #######################################################
                  #                        -***-                        #
                  #          Department of theory and spectroscopy      #
                  #               Directorship: Frank Neese             #
                  #        Max Planck Institute fuer Kohlenforschung    #
                  #                Kaiser Wilhelm Platz 1               #
                  #                 D-45470 Muelheim/Ruhr               #
                  #                      Germany                        #
                  #                                                     #
                  #                  All rights reserved                #
                  #                        -***-                        #
                  #######################################################


                         Program Version 4.2.0 -  RELEASE  -


 With contributions from (in alphabetic order):
   Daniel Aravena         : Magnetic Suceptibility
   Michael Atanasov       : Ab Initio Ligand Field Theory (pilot matlab implementation)
   Alexander A. Auer      : GIAO ZORA, VPT2
   Ute Becker             : Parallelization
   Giovanni Bistoni       : ED, misc. LED, open-shell LED, HFLED
   Martin Brehm           : Molecular dynamics
   Dmytro Bykov           : SCF Hessian
   Vijay G. Chilkuri      : MRCI spin determinant printing, contributions to CSF-ICE
   Dipayan Datta          : RHF DLPNO-CCSD density
   Achintya Kumar Dutta   : EOM-CC, STEOM-CC
   Dmitry Ganyushin       : Spin-Orbit,Spin-Spin,Magnetic field MRCI
   Miquel Garcia          : C-PCM Hessian, Gaussian charge scheme
   Yang Guo               : DLPNO-NEVPT2, CIM, IAO-localization
   Andreas Hansen         : Spin unrestricted coupled pair/coupled cluster methods
   Benjamin Helmich-Paris : CASSCF linear response (MC-RPA)
   Lee Huntington         : MR-EOM, pCC
   Robert Izsak           : Overlap fitted RIJCOSX, COSX-SCS-MP3, EOM
   Christian Kollmar      : KDIIS, OOCD, Brueckner-CCSD(T), CCSD density
   Simone Kossmann        : Meta GGA functionals, TD-DFT gradient, OOMP2, MP2 Hessian
   Martin Krupicka        : AUTO-CI
   Lucas Lang             : DCDCAS
   Dagmar Lenk            : GEPOL surface, SMD
   Dimitrios Liakos       : Extrapolation schemes; Compound Job, initial MDCI parallelization
   Dimitrios Manganas     : Further ROCIS development; embedding schemes
   Dimitrios Pantazis     : SARC Basis sets
   Taras Petrenko         : DFT Hessian,TD-DFT gradient, ASA, ECA, R-Raman, ABS, FL, XAS/XES, NRVS
   Peter Pinski           : DLPNO-MP2, DLPNO-MP2 Gradient
   Christoph Reimann      : Effective Core Potentials
   Marius Retegan         : Local ZFS, SOC
   Christoph Riplinger    : Optimizer, TS searches, QM/MM, DLPNO-CCSD(T), (RO)-DLPNO pert. Triples
   Tobias Risthaus        : Range-separated hybrids, TD-DFT gradient, RPA, STAB
   Michael Roemelt        : Original ROCIS implementation
   Masaaki Saitow         : Open-shell DLPNO-CCSD energy and density
   Barbara Sandhoefer     : DKH picture change effects
   Avijit Sen             : IP-ROCIS
   Kantharuban Sivalingam : CASSCF convergence, NEVPT2, FIC-MRCI
   Bernardo de Souza      : ESD, SOC TD-DFT
   Georgi Stoychev        : AutoAux, RI-MP2 NMR
   Willem Van den Heuvel  : Paramagnetic NMR
   Boris Wezisla          : Elementary symmetry handling
   Frank Wennmohs         : Technical directorship


 We gratefully acknowledge several colleagues who have allowed us to
 interface, adapt or use parts of their codes:
   Stefan Grimme, W. Hujo, H. Kruse,             : VdW corrections, initial TS optimization,
                  C. Bannwarth                     DFT functionals, gCP, sTDA/sTD-DF
   Ed Valeev, F. Pavosevic, A. Kumar             : LibInt (2-el integral package), F12 methods
   Garnet Chan, S. Sharma, J. Yang, R. Olivares  : DMRG
   Ulf Ekstrom                                   : XCFun DFT Library
   Mihaly Kallay                                 : mrcc  (arbitrary order and MRCC methods)
   Andreas Klamt, Michael Diedenhofen            : otool_cosmo (COSMO solvation model)
   Jiri Pittner, Ondrej Demel                    : Mk-CCSD
   Frank Weinhold                                : gennbo (NPA and NBO analysis)
   Christopher J. Cramer and Donald G. Truhlar   : smd solvation model
   Lars Goerigk                                  : TD-DFT with DH, B97 family of functionals
   V. Asgeirsson, H. Jonsson                     : NEB implementation
   FAccTs GmbH                                   : IRC, NEB, NEB-TS, Multilevel, MM, QM/MM, CI optimization
   S Lehtola, MJT Oliveira, MAL Marques          : LibXC Library


 Your calculation uses the libint2 library for the computation of 2-el integrals
 For citations please refer to: http://libint.valeyev.net

 Your ORCA version has been built with support for libXC version: 4.2.3
 For citations please refer to: https://tddft.org/programs/libxc/

 This ORCA versions uses:
   CBLAS   interface :  Fast vector & matrix operations
   LAPACKE interface :  Fast linear algebra routines
   SCALAPACK package :  Parallel linear algebra routines




***************************************
The coordinates will be read from file: xtbopt.xyz
***************************************


Your calculation utilizes the atom-pairwise dispersion correction
with the Becke-Johnson damping scheme (D3BJ)
Cite in your paper:
S.Grimme, S.Ehrlich, L.Goerigk, J Comput Chem, (2011), 32, 1456–1465 
S.Grimme, J.Antony, S.Ehrlich and H.Krieg, J.Chem.Phys., 132, (2010), 154104 
   

----- Orbital basis set information -----
Your calculation utilizes the basis: def2-SVP
   F. Weigend and R. Ahlrichs, Phys. Chem. Chem. Phys. 7, 3297 (2005).

----- AuxJ basis set information -----
Your calculation utilizes the auxiliary basis: def2/J
   F. Weigend, Phys. Chem. Chem. Phys. 8, 1057 (2006).

cite the ECPs for Rh [Def2-ECP] as follows:
Ce-Yb(ecp-28): M. Dolg, H. Stoll, H.Preuss, J. Chem. Phys., 1989, 90, 1730-1734.
Y-Cd(ecp-28), Hf-Hg(ecp-46): D. Andrae,U. Haeussermann, M. Dolg, H. Stoll, H. Preuss, Theor. Chim. Acta, 1990, 77, 123-141.
In-Sb(ecp-28), Tl-Bi(ecp-46): B. Metz, H. Stoll, M. Dolg, J. Chem. Phys., 2000, 113, 2563-2569.
Te-Xe(ecp-28), Po-Rn(ecp-46): K. A. Peterson, D. Figgen, E. Goll, H. Stoll, M. Dolg, J. Chem. Phys., 2003, 119, 11113-11123.
Rb(ecp-28), Cs(ecp-46): T. Leininger, A. Nicklass, W. Kuechle, H. Stoll, M. Dolg, A. Bergner, Chem. Phys. Lett., 1996, 255, 274-280.
Sr(ecp-28), Ba(ecp-46): M. Kaupp, P. V. Schleyer, H. Stoll and H. Preuss, J. Chem. Phys., 1991, 94, 1360-1366.
La(ecp-46): M. Dolg, H. Stoll, A. Savin, H. Preuss, Theor. Chim. Acta, 1989, 75, 173-194.
Lu(ecp-28): X. Cao, M. Dolg, J. Chem. Phys., 2001, 115, 7348-7355.

ECP parameters for Rh [Def2-ECP] have been obtained from:
TURBOMOLE (7.0.2)

================================================================================
                                        WARNINGS
                       Please study these warnings very carefully!
================================================================================


WARNING: Split-RI-J cannot be used together with RIJONX
  ===> : Split-RI-J will be disabled

WARNING: Geometry Optimization
  ===> : Switching off AutoStart
         For restart on a previous wavefunction, please use MOREAD

INFO   : the flag for use of LIBINT has been found!

================================================================================
                                       INPUT FILE
================================================================================
NAME = TEP_Rh.inp
|  1> ! PBE0 def2-SVP RIJDX D3BJ opt freq
|  2> %pal nprocs 20 end
|  3> %maxcore 5000
|  4> 
|  5> %basis
|  6>   newgto Rh "def2-TZVP" end
|  7> end
|  8> 
|  9> *xyzfile 0 1 xtbopt.xyz
| 10> 
| 11>                          ****END OF INPUT****
================================================================================

                       *****************************
                       * Geometry Optimization Run *
                       *****************************

Geometry optimization settings:
Update method            Update   .... BFGS
Choice of coordinates    CoordSys .... Z-matrix Internals
Initial Hessian          InHess   .... Almoef's Model

Convergence Tolerances:
Energy Change            TolE     ....  5.0000e-06 Eh
Max. Gradient            TolMAXG  ....  3.0000e-04 Eh/bohr
RMS Gradient             TolRMSG  ....  1.0000e-04 Eh/bohr
Max. Displacement        TolMAXD  ....  4.0000e-03 bohr
RMS Displacement         TolRMSD  ....  2.0000e-03 bohr
Strict Convergence                ....  False
------------------------------------------------------------------------------
                        ORCA OPTIMIZATION COORDINATE SETUP
------------------------------------------------------------------------------

The optimization will be done in new redundant internal coordinates
Making redundant internal coordinates   ...  (new redundants) done
Evaluating the initial hessian          ...  (Almloef) done
Evaluating the coordinates              ...  done
Calculating the B-matrix                .... done
Calculating the G-matrix                .... done
Diagonalizing the G-matrix              .... done
Small eigenvalue found = 2.954e-03
Small eigenvalue found = 3.486e-03
Small eigenvalue found = 5.261e-03
Small eigenvalue found = 6.357e-03
Small eigenvalue found = 7.101e-03
Small eigenvalue found = 1.061e-02
Small eigenvalue found = 1.258e-02
Small eigenvalue found = 1.778e-02
Small eigenvalue found = 2.270e-02
Small eigenvalue found = 2.715e-02
The first mode is                       ....  223
The number of degrees of freedom        ....  222

    -----------------------------------------------------------------
                    Redundant Internal Coordinates


    -----------------------------------------------------------------
         Definition                    Initial Value    Approx d2E/dq
    -----------------------------------------------------------------
      1. B(Rh  1,H   0)                  1.5350         0.710398   
      2. B(P   2,Rh  1)                  2.2801         0.807816   
      3. B(C   3,P   2)                  1.8338         0.411360   
      4. B(C   4,C   3)                  1.3902         0.624349   
      5. B(C   5,C   4)                  1.3844         0.637801   
      6. B(C   6,C   5)                  1.3844         0.637750   
      7. B(C   7,C   6)                  1.3855         0.635225   
      8. B(C   8,C   7)                  1.3816         0.644400   
      9. B(C   8,C   3)                  1.3941         0.615514   
     10. B(C   9,P   2)                  1.8373         0.406126   
     11. B(C  10,C   9)                  1.3904         0.623925   
     12. B(C  11,C  10)                  1.3837         0.639494   
     13. B(C  12,C  11)                  1.3837         0.639317   
     14. B(C  13,C  12)                  1.3844         0.637886   
     15. B(C  14,C   9)                  1.3919         0.620407   
     16. B(C  14,C  13)                  1.3807         0.646451   
     17. B(C  15,P   2)                  1.8698         0.360318   
     18. B(C  16,C  15)                  1.4944         0.425741   
     19. B(C  17,C  16)                  1.3916         0.621042   
     20. B(C  18,C  17)                  1.3822         0.642948   
     21. B(C  19,C  18)                  1.3840         0.638758   
     22. B(C  20,C  19)                  1.3822         0.642878   
     23. B(C  21,C  20)                  1.3929         0.618174   
     24. B(C  21,C  16)                  1.3990         0.604511   
     25. B(C  22,C  21)                  1.4812         0.446861   
     26. B(C  23,C  22)                  1.3951         0.613248   
     27. B(C  24,C  23)                  1.3811         0.645456   
     28. B(C  25,C  24)                  1.3855         0.635124   
     29. B(C  26,C  25)                  1.3823         0.642661   
     30. B(C  27,C  26)                  1.3962         0.610815   
     31. B(C  27,C  22)                  1.4020         0.597760   
     32. B(C  28,C  27)                  1.5085         0.404218   
     33. B(P  29,C  28)                  1.8677         0.363150   
     34. B(P  29,Rh  1)                  2.2550         0.885782   
     35. B(C  30,P  29)                  1.8288         0.418961   
     36. B(C  31,C  30)                  1.3908         0.622850   
     37. B(C  32,C  31)                  1.3810         0.645852   
     38. B(C  33,C  32)                  1.3849         0.636687   
     39. B(C  34,C  33)                  1.3846         0.637290   
     40. B(C  35,C  34)                  1.3832         0.640504   
     41. B(C  35,C  30)                  1.3881         0.629103   
     42. B(C  36,P  29)                  1.8350         0.409581   
     43. B(C  37,C  36)                  1.3910         0.622553   
     44. B(C  38,C  37)                  1.3823         0.642670   
     45. B(C  39,C  38)                  1.3853         0.635619   
     46. B(C  40,C  39)                  1.3843         0.638064   
     47. B(C  41,C  40)                  1.3833         0.640323   
     48. B(C  41,C  36)                  1.3889         0.627294   
     49. B(C  42,Rh  1)                  1.8302         1.254846   
     50. B(O  43,C  42)                  1.1518         1.342424   
     51. B(H  44,C   4)                  1.0800         0.373536   
     52. B(H  45,C   5)                  1.0806         0.372741   
     53. B(H  46,C   6)                  1.0800         0.373631   
     54. B(H  47,C   7)                  1.0801         0.373422   
     55. B(H  48,C   8)                  1.0919         0.357601   
     56. B(H  49,C  10)                  1.0802         0.373275   
     57. B(H  50,C  11)                  1.0806         0.372714   
     58. B(H  51,C  12)                  1.0801         0.373483   
     59. B(H  52,C  13)                  1.0802         0.373337   
     60. B(H  53,C  14)                  1.0793         0.374479   
     61. B(H  54,C  15)                  1.0917         0.357890   
     62. B(H  55,C  15)                  1.0936         0.355390   
     63. B(H  56,C  17)                  1.0812         0.371935   
     64. B(H  57,C  18)                  1.0797         0.373968   
     65. B(H  58,C  19)                  1.0801         0.373413   
     66. B(H  59,C  20)                  1.0815         0.371572   
     67. B(H  60,C  23)                  1.0816         0.371334   
     68. B(H  61,C  24)                  1.0798         0.373914   
     69. B(H  62,C  25)                  1.0794         0.374434   
     70. B(H  63,C  26)                  1.0828         0.369712   
     71. B(H  64,C  28)                  1.0916         0.358031   
     72. B(H  65,C  28)                  1.0927         0.356577   
     73. B(H  66,C  31)                  1.0856         0.365906   
     74. B(H  67,C  32)                  1.0800         0.373626   
     75. B(H  68,H  51)                  3.6206         0.000006   
     76. B(H  68,C  33)                  1.0800         0.373508   
     77. B(H  69,C  34)                  1.0806         0.372750   
     78. B(H  70,C  35)                  1.0805         0.372904   
     79. B(H  71,C  37)                  1.0807         0.372602   
     80. B(H  72,C  38)                  1.0808         0.372540   
     81. B(H  73,C  39)                  1.0801         0.373398   
     82. B(H  74,C  40)                  1.0803         0.373228   
     83. B(H  75,C  41)                  1.0823         0.370460   
     84. A(H   0,Rh  1,P  29)           89.8824         0.584322   
     85. A(P  29,Rh  1,C  42)          167.1722         0.710162   
     86. A(H   0,Rh  1,P   2)          165.5826         0.574100   
     87. A(P   2,Rh  1,P  29)           99.3278         0.685668   
     88. A(P   2,Rh  1,C  42)           88.0225         0.697342   
     89. A(H   0,Rh  1,C  42)           85.1015         0.594013   
     90. A(Rh  1,P   2,C  15)          116.6572         0.519879   
     91. A(C   3,P   2,C   9)           99.7033         0.425372   
     92. A(Rh  1,P   2,C   9)          129.3373         0.531709   
     93. A(C   9,P   2,C  15)           98.7970         0.415436   
     94. A(Rh  1,P   2,C   3)          105.8937         0.532994   
     95. A(C   3,P   2,C  15)          102.5945         0.416383   
     96. A(C   4,C   3,C   8)          118.7750         0.434045   
     97. A(P   2,C   3,C   4)          126.4474         0.430726   
     98. A(P   2,C   3,C   8)          114.7600         0.429625   
     99. A(C   3,C   4,C   5)          120.2673         0.436834   
    100. A(C   5,C   4,H  44)          118.8401         0.356817   
    101. A(C   3,C   4,H  44)          120.8918         0.355528   
    102. A(C   4,C   5,H  45)          119.5974         0.356688   
    103. A(C   6,C   5,H  45)          119.9494         0.356683   
    104. A(C   4,C   5,C   6)          120.4531         0.438510   
    105. A(C   5,C   6,C   7)          119.7617         0.438190   
    106. A(C   5,C   6,H  46)          120.0376         0.356827   
    107. A(C   7,C   6,H  46)          120.2007         0.356587   
    108. A(C   8,C   7,H  47)          120.0421         0.357423   
    109. A(C   6,C   7,H  47)          120.1613         0.356553   
    110. A(C   6,C   7,C   8)          119.7954         0.439010   
    111. A(C   7,C   8,H  48)          120.4791         0.354805   
    112. A(C   3,C   8,C   7)          120.9403         0.436522   
    113. A(C   3,C   8,H  48)          118.5708         0.352061   
    114. A(P   2,C   9,C  10)          123.1208         0.429684   
    115. A(C  10,C   9,C  14)          118.6693         0.434611   
    116. A(P   2,C   9,C  14)          118.1896         0.429249   
    117. A(C   9,C  10,C  11)          120.3646         0.436989   
    118. A(C   9,C  10,H  49)          120.1893         0.355444   
    119. A(C  11,C  10,H  49)          119.4460         0.356935   
    120. A(C  12,C  11,H  50)          120.0320         0.356827   
    121. A(C  10,C  11,H  50)          119.5375         0.356844   
    122. A(C  10,C  11,C  12)          120.4302         0.438914   
    123. A(C  11,C  12,H  51)          120.2190         0.356952   
    124. A(C  13,C  12,H  51)          120.1620         0.356816   
    125. A(C  11,C  12,C  13)          119.6166         0.438714   
    126. A(C  14,C  13,H  52)          119.7832         0.357602   
    127. A(C  12,C  13,H  52)          120.2452         0.356792   
    128. A(C  12,C  13,C  14)          119.9710         0.439594   
    129. A(C  13,C  14,H  53)          119.5679         0.357788   
    130. A(C   9,C  14,H  53)          119.5269         0.355298   
    131. A(C   9,C  14,C  13)          120.9051         0.437396   
    132. A(H  54,C  15,H  55)          109.3727         0.289959   
    133. A(P   2,C  15,H  55)          105.2076         0.341479   
    134. A(P   2,C  15,C  16)          111.5584         0.393102   
    135. A(C  16,C  15,H  54)          109.2567         0.331047   
    136. A(P   2,C  15,H  54)          109.4145         0.341880   
    137. A(C  16,C  15,H  55)          111.9400         0.330664   
    138. A(C  15,C  16,C  21)          122.3102         0.404113   
    139. A(C  15,C  16,C  17)          118.8765         0.406043   
    140. A(C  17,C  16,C  21)          118.7296         0.432226   
    141. A(C  18,C  17,H  56)          119.3797         0.357043   
    142. A(C  16,C  17,C  18)          121.4961         0.437048   
    143. A(C  16,C  17,H  56)          119.1232         0.354949   
    144. A(C  17,C  18,H  57)          119.9498         0.357374   
    145. A(C  19,C  18,H  57)          120.3541         0.356978   
    146. A(C  17,C  18,C  19)          119.6957         0.439271   
    147. A(C  18,C  19,C  20)          119.5249         0.439263   
    148. A(C  18,C  19,H  58)          120.4110         0.356887   
    149. A(C  20,C  19,H  58)          120.0634         0.357278   
    150. A(C  19,C  20,C  21)          121.2374         0.436676   
    151. A(C  21,C  20,H  59)          118.7101         0.354612   
    152. A(C  19,C  20,H  59)          120.0499         0.356978   
    153. A(C  20,C  21,C  22)          117.7099         0.409201   
    154. A(C  16,C  21,C  22)          122.9159         0.407585   
    155. A(C  16,C  21,C  20)          119.3148         0.431867   
    156. A(C  23,C  22,C  27)          119.1719         0.430378   
    157. A(C  21,C  22,C  27)          122.4132         0.406777   
    158. A(C  21,C  22,C  23)          118.1146         0.408622   
    159. A(C  24,C  23,H  60)          119.9589         0.357182   
    160. A(C  22,C  23,H  60)          118.8128         0.354092   
    161. A(C  22,C  23,C  24)          121.2084         0.436361   
    162. A(C  23,C  24,H  61)          119.9288         0.357602   
    163. A(C  25,C  24,H  61)          120.3437         0.356623   
    164. A(C  23,C  24,C  25)          119.7228         0.439128   
    165. A(C  26,C  25,H  62)          119.9868         0.357423   
    166. A(C  24,C  25,H  62)          120.2730         0.356707   
    167. A(C  24,C  25,C  26)          119.7391         0.438784   
    168. A(C  27,C  26,H  63)          118.6867         0.353592   
    169. A(C  25,C  26,H  63)          120.0321         0.356653   
    170. A(C  25,C  26,C  27)          121.2742         0.435708   
    171. A(C  26,C  27,C  28)          118.1286         0.401167   
    172. A(C  22,C  27,C  28)          122.9959         0.399644   
    173. A(C  22,C  27,C  26)          118.8664         0.430071   
    174. A(H  64,C  28,H  65)          109.5485         0.290128   
    175. A(P  29,C  28,H  65)          111.1619         0.342118   
    176. A(P  29,C  28,H  64)          109.4196         0.342351   
    177. A(C  27,C  28,H  64)          111.3557         0.328243   
    178. A(C  27,C  28,H  65)          110.2651         0.328023   
    179. A(C  27,C  28,P  29)          105.0278         0.390085   
    180. A(Rh  1,P  29,C  36)          124.8307         0.541906   
    181. A(C  30,P  29,C  36)           96.4982         0.427417   
    182. A(C  28,P  29,C  30)          105.3064         0.418326   
    183. A(Rh  1,P  29,C  30)          123.1348         0.544233   
    184. A(Rh  1,P  29,C  28)          101.2271         0.529739   
    185. A(C  28,P  29,C  36)          103.2139         0.416642   
    186. A(C  31,C  30,C  35)          119.4372         0.435566   
    187. A(P  29,C  30,C  35)          125.5232         0.432734   
    188. A(P  29,C  30,C  31)          115.0239         0.431958   
    189. A(C  30,C  31,H  66)          118.6282         0.354141   
    190. A(C  30,C  31,C  32)          120.6302         0.437633   
    191. A(C  32,C  31,H  66)          120.7360         0.356326   
    192. A(C  33,C  32,H  67)          120.1546         0.356725   
    193. A(C  31,C  32,H  67)          120.1831         0.357593   
    194. A(C  31,C  32,C  33)          119.6608         0.439371   
    195. A(C  32,C  33,H  68)          120.0326         0.356706   
    196. A(C  34,C  33,H  68)          119.9500         0.356763   
    197. A(C  32,C  33,C  34)          120.0168         0.438314   
    198. A(C  35,C  34,H  69)          119.7450         0.356945   
    199. A(C  33,C  34,H  69)          119.8845         0.356640   
    200. A(C  33,C  34,C  35)          120.3704         0.438787   
    201. A(C  30,C  35,C  34)          119.8845         0.437765   
    202. A(C  34,C  35,H  70)          119.6058         0.356970   
    203. A(C  30,C  35,H  70)          120.5026         0.355883   
    204. A(P  29,C  36,C  37)          122.6379         0.430168   
    205. A(C  37,C  36,C  41)          119.1507         0.435303   
    206. A(P  29,C  36,C  41)          118.1276         0.430754   
    207. A(C  36,C  37,C  38)          120.2583         0.437206   
    208. A(C  38,C  37,H  71)          119.2084         0.357126   
    209. A(C  36,C  37,H  71)          120.5331         0.355203   
    210. A(C  39,C  38,H  72)          119.9866         0.356447   
    211. A(C  37,C  38,H  72)          119.7758         0.357116   
    212. A(C  37,C  38,C  39)          120.2374         0.438847   
    213. A(C  40,C  39,H  73)          120.2372         0.356819   
    214. A(C  38,C  39,H  73)          119.9443         0.356587   
    215. A(C  38,C  39,C  40)          119.8183         0.438278   
    216. A(C  41,C  40,H  74)          119.9395         0.357006   
    217. A(C  39,C  40,H  74)          120.0863         0.356792   
    218. A(C  39,C  40,C  41)          119.9740         0.438861   
    219. A(C  40,C  41,H  75)          120.6238         0.356555   
    220. A(C  36,C  41,H  75)          118.8202         0.355313   
    221. A(C  36,C  41,C  40)          120.5500         0.437516   
    222. A(Rh  1,C  42,O  43)          173.7248         0.641215   
    223. D(C  15,P   2,Rh  1,H   0)   -123.3281         0.002372   
    224. D(C  15,P   2,Rh  1,C  42)    -61.8482         0.002372   
    225. D(C   9,P   2,Rh  1,H   0)    107.4230         0.002372   
    226. D(C   3,P   2,Rh  1,P  29)   -139.0530         0.002372   
    227. D(C   9,P   2,Rh  1,P  29)    -21.6692         0.002372   
    228. D(C   9,P   2,Rh  1,C  42)    168.9029         0.002372   
    229. D(C   3,P   2,Rh  1,H   0)     -9.9608         0.002372   
    230. D(C   3,P   2,Rh  1,C  42)     51.5192         0.002372   
    231. D(C  15,P   2,Rh  1,P  29)    107.5797         0.002372   
    232. D(C   4,C   3,P   2,Rh  1)   -149.4852         0.003794   
    233. D(C   8,C   3,P   2,Rh  1)     32.0672         0.003794   
    234. D(C   8,C   3,P   2,C  15)    154.8602         0.003794   
    235. D(C   8,C   3,P   2,C   9)   -103.7675         0.003794   
    236. D(C   4,C   3,P   2,C   9)     74.6800         0.003794   
    237. D(C   4,C   3,P   2,C  15)    -26.6923         0.003794   
    238. D(C   5,C   4,C   3,C   8)     -0.9815         0.026997   
    239. D(H  44,C   4,C   3,C   8)    178.6770         0.026997   
    240. D(H  44,C   4,C   3,P   2)      0.2854         0.026997   
    241. D(C   5,C   4,C   3,P   2)   -179.3731         0.026997   
    242. D(H  45,C   5,C   4,H  44)      0.9244         0.028250   
    243. D(H  45,C   5,C   4,C   3)   -179.4101         0.028250   
    244. D(C   6,C   5,C   4,H  44)   -178.9403         0.028250   
    245. D(C   6,C   5,C   4,C   3)      0.7252         0.028250   
    246. D(H  46,C   6,C   5,H  45)      0.2338         0.028245   
    247. D(C   7,C   6,C   5,H  45)   -179.8450         0.028245   
    248. D(H  46,C   6,C   5,C   4)   -179.9019         0.028245   
    249. D(C   7,C   6,C   5,C   4)      0.0193         0.028245   
    250. D(H  47,C   7,C   6,H  46)     -0.1620         0.028008   
    251. D(H  47,C   7,C   6,C   5)    179.9170         0.028008   
    252. D(C   8,C   7,C   6,H  46)    179.4336         0.028008   
    253. D(C   8,C   7,C   6,C   5)     -0.4875         0.028008   
    254. D(H  48,C   8,C   7,C   6)   -178.6276         0.028878   
    255. D(C   3,C   8,C   7,H  47)    179.8137         0.028878   
    256. D(C   3,C   8,C   7,C   6)      0.2177         0.028878   
    257. D(H  48,C   8,C   3,C   4)    179.3814         0.026193   
    258. D(H  48,C   8,C   3,P   2)     -2.0433         0.026193   
    259. D(C   7,C   8,C   3,C   4)      0.5145         0.026193   
    260. D(H  48,C   8,C   7,H  47)      0.9684         0.028878   
    261. D(C   7,C   8,C   3,P   2)    179.0898         0.026193   
    262. D(C  14,C   9,P   2,C   3)   -176.1428         0.003734   
    263. D(C  14,C   9,P   2,C  15)    -71.6470         0.003734   
    264. D(C  10,C   9,P   2,C  15)    110.0184         0.003734   
    265. D(C  10,C   9,P   2,C   3)      5.5225         0.003734   
    266. D(C  14,C   9,P   2,Rh  1)     63.8997         0.003734   
    267. D(C  10,C   9,P   2,Rh  1)   -114.4350         0.003734   
    268. D(H  49,C  10,C   9,C  14)   -178.2002         0.026958   
    269. D(H  49,C  10,C   9,P   2)      0.1269         0.026958   
    270. D(C  11,C  10,C   9,C  14)      1.7007         0.026958   
    271. D(C  11,C  10,C   9,P   2)   -179.9722         0.026958   
    272. D(H  50,C  11,C  10,H  49)     -0.2342         0.028411   
    273. D(H  50,C  11,C  10,C   9)    179.8641         0.028411   
    274. D(C  12,C  11,C  10,H  49)    179.9659         0.028411   
    275. D(C  12,C  11,C  10,C   9)      0.0643         0.028411   
    276. D(H  51,C  12,C  11,H  50)     -0.3706         0.028394   
    277. D(H  51,C  12,C  11,C  10)    179.4283         0.028394   
    278. D(C  13,C  12,C  11,C  10)     -1.1357         0.028394   
    279. D(C  13,C  12,C  11,H  50)    179.0654         0.028394   
    280. D(H  52,C  13,C  12,H  51)      0.1504         0.028258   
    281. D(H  52,C  13,C  12,C  11)   -179.2859         0.028258   
    282. D(C  14,C  13,C  12,H  51)    179.8449         0.028258   
    283. D(C  14,C  13,C  12,C  11)      0.4085         0.028258   
    284. D(C  13,C  14,C   9,C  10)     -2.4390         0.026636   
    285. D(C  13,C  14,C   9,P   2)    179.1506         0.026636   
    286. D(H  53,C  14,C  13,H  52)      1.2417         0.029075   
    287. D(H  53,C  14,C  13,C  12)   -178.4542         0.029075   
    288. D(C   9,C  14,C  13,H  52)   -178.9050         0.029075   
    289. D(C   9,C  14,C  13,C  12)      1.3992         0.029075   
    290. D(H  53,C  14,C   9,C  10)    177.4144         0.026636   
    291. D(H  53,C  14,C   9,P   2)     -0.9960         0.026636   
    292. D(H  54,C  15,P   2,C   9)    -62.0839         0.003386   
    293. D(H  55,C  15,P   2,Rh  1)     37.8172         0.003386   
    294. D(H  55,C  15,P   2,C   9)   -179.4890         0.003386   
    295. D(H  54,C  15,P   2,C   3)     39.9994         0.003386   
    296. D(H  55,C  15,P   2,C   3)    -77.4057         0.003386   
    297. D(H  54,C  15,P   2,Rh  1)    155.2224         0.003386   
    298. D(C  16,C  15,P   2,C   9)     58.9291         0.003386   
    299. D(C  16,C  15,P   2,C   3)    161.0124         0.003386   
    300. D(C  16,C  15,P   2,Rh  1)    -83.7646         0.003386   
    301. D(C  21,C  16,C  15,H  55)    -47.5152         0.013393   
    302. D(C  21,C  16,C  15,H  54)   -168.8156         0.013393   
    303. D(C  21,C  16,C  15,P   2)     70.0795         0.013393   
    304. D(C  17,C  16,C  15,H  55)    135.8542         0.013393   
    305. D(C  17,C  16,C  15,H  54)     14.5539         0.013393   
    306. D(C  17,C  16,C  15,P   2)   -106.5511         0.013393   
    307. D(H  56,C  17,C  16,C  21)   -179.3567         0.026694   
    308. D(H  56,C  17,C  16,C  15)     -2.6041         0.026694   
    309. D(C  18,C  17,C  16,C  21)      0.2802         0.026694   
    310. D(C  18,C  17,C  16,C  15)    177.0329         0.026694   
    311. D(H  57,C  18,C  17,H  56)     -0.4754         0.028739   
    312. D(H  57,C  18,C  17,C  16)    179.8886         0.028739   
    313. D(C  19,C  18,C  17,H  56)    179.2877         0.028739   
    314. D(C  19,C  18,C  17,C  16)     -0.3483         0.028739   
    315. D(H  58,C  19,C  18,H  57)     -0.1778         0.028341   
    316. D(C  20,C  19,C  18,H  57)   -179.8677         0.028341   
    317. D(C  20,C  19,C  18,C  17)      0.3701         0.028341   
    318. D(H  58,C  19,C  18,C  17)   -179.9400         0.028341   
    319. D(H  59,C  20,C  19,H  58)     -0.6182         0.028732   
    320. D(H  59,C  20,C  19,C  18)    179.0729         0.028732   
    321. D(C  21,C  20,C  19,H  58)    179.9710         0.028732   
    322. D(C  21,C  20,C  19,C  18)     -0.3380         0.028732   
    323. D(C  22,C  21,C  20,H  59)     -1.8667         0.026434   
    324. D(C  22,C  21,C  20,C  19)    177.5519         0.026434   
    325. D(C  16,C  21,C  20,H  59)   -179.1465         0.026434   
    326. D(C  16,C  21,C  20,C  19)      0.2721         0.026434   
    327. D(C  22,C  21,C  16,C  17)   -177.3680         0.025213   
    328. D(C  22,C  21,C  16,C  15)      5.9966         0.025213   
    329. D(C  20,C  21,C  16,C  17)     -0.2369         0.025213   
    330. D(C  20,C  21,C  16,C  15)   -176.8722         0.025213   
    331. D(C  27,C  22,C  21,C  20)     64.7057         0.013616   
    332. D(C  27,C  22,C  21,C  16)   -118.1198         0.013616   
    333. D(C  23,C  22,C  21,C  20)   -108.9441         0.013616   
    334. D(C  23,C  22,C  21,C  16)     68.2304         0.013616   
    335. D(H  60,C  23,C  22,C  27)   -178.5898         0.025989   
    336. D(H  60,C  23,C  22,C  21)     -4.7286         0.025989   
    337. D(C  24,C  23,C  22,C  27)     -0.2138         0.025989   
    338. D(C  24,C  23,C  22,C  21)    173.6474         0.025989   
    339. D(H  61,C  24,C  23,H  60)     -1.8321         0.028979   
    340. D(H  61,C  24,C  23,C  22)    179.8103         0.028979   
    341. D(C  25,C  24,C  23,H  60)    177.3784         0.028979   
    342. D(C  25,C  24,C  23,C  22)     -0.9792         0.028979   
    343. D(H  62,C  25,C  24,H  61)      0.1649         0.027998   
    344. D(H  62,C  25,C  24,C  23)   -179.0422         0.027998   
    345. D(C  26,C  25,C  24,H  61)   -179.4642         0.027998   
    346. D(C  26,C  25,C  24,C  23)      1.3287         0.027998   
    347. D(H  63,C  26,C  25,C  24)   -179.5227         0.028712   
    348. D(C  27,C  26,C  25,H  62)    179.8722         0.028712   
    349. D(C  27,C  26,C  25,C  24)     -0.4977         0.028712   
    350. D(H  63,C  26,C  25,H  62)      0.8472         0.028712   
    351. D(C  28,C  27,C  26,H  63)     -2.7166         0.025772   
    352. D(C  28,C  27,C  26,C  25)    178.2456         0.025772   
    353. D(C  22,C  27,C  26,H  63)    178.3484         0.025772   
    354. D(C  22,C  27,C  26,C  25)     -0.6894         0.025772   
    355. D(C  28,C  27,C  22,C  23)   -177.8460         0.024623   
    356. D(C  28,C  27,C  22,C  21)      8.5688         0.024623   
    357. D(C  26,C  27,C  22,C  23)      1.0342         0.024623   
    358. D(C  26,C  27,C  22,C  21)   -172.5510         0.024623   
    359. D(H  65,C  28,C  27,C  26)     46.8496         0.012115   
    360. D(H  65,C  28,C  27,C  22)   -134.2625         0.012115   
    361. D(H  64,C  28,C  27,C  26)    168.6759         0.012115   
    362. D(H  64,C  28,C  27,C  22)    -12.4361         0.012115   
    363. D(P  29,C  28,C  27,C  26)    -72.9902         0.012115   
    364. D(P  29,C  28,C  27,C  22)    105.8978         0.012115   
    365. D(C  36,P  29,C  28,H  65)     -7.8067         0.003416   
    366. D(C  36,P  29,C  28,C  27)    111.4346         0.003416   
    367. D(C  30,P  29,C  28,H  65)     92.8421         0.003416   
    368. D(C  30,P  29,C  28,H  64)    -28.2835         0.003416   
    369. D(Rh  1,P  29,C  28,H  65)   -137.9530         0.003416   
    370. D(Rh  1,P  29,C  28,H  64)    100.9214         0.003416   
    371. D(Rh  1,P  29,C  28,C  27)    -18.7116         0.003416   
    372. D(C  36,P  29,Rh  1,C  42)    -72.3537         0.002543   
    373. D(C  36,P  29,Rh  1,P   2)    163.3245         0.002543   
    374. D(C  36,P  29,Rh  1,H   0)     -5.5333         0.002543   
    375. D(C  30,P  29,Rh  1,C  42)    159.4146         0.002543   
    376. D(C  30,P  29,C  28,C  27)   -147.9166         0.003416   
    377. D(C  30,P  29,Rh  1,P   2)     35.0927         0.002543   
    378. D(C  30,P  29,Rh  1,H   0)   -133.7650         0.002543   
    379. D(C  28,P  29,Rh  1,C  42)     42.6091         0.002543   
    380. D(C  36,P  29,C  28,H  64)   -128.9324         0.003416   
    381. D(C  28,P  29,Rh  1,P   2)    -81.7128         0.002543   
    382. D(C  28,P  29,Rh  1,H   0)    109.4295         0.002543   
    383. D(C  35,C  30,P  29,C  36)     76.8942         0.003882   
    384. D(C  35,C  30,P  29,C  28)    -28.7523         0.003882   
    385. D(C  35,C  30,P  29,Rh  1)   -143.5686         0.003882   
    386. D(C  31,C  30,P  29,C  36)   -101.6488         0.003882   
    387. D(C  31,C  30,P  29,C  28)    152.7047         0.003882   
    388. D(C  31,C  30,P  29,Rh  1)     37.8885         0.003882   
    389. D(H  66,C  31,C  30,C  35)    179.1320         0.026860   
    390. D(H  66,C  31,C  30,P  29)     -2.2296         0.026860   
    391. D(C  32,C  31,C  30,C  35)     -0.0175         0.026860   
    392. D(C  32,C  31,C  30,P  29)    178.6209         0.026860   
    393. D(H  67,C  32,C  31,H  66)      0.4102         0.029017   
    394. D(H  67,C  32,C  31,C  30)    179.5417         0.029017   
    395. D(C  33,C  32,C  31,H  66)   -179.1546         0.029017   
    396. D(C  33,C  32,C  31,C  30)     -0.0231         0.029017   
    397. D(H  68,C  33,C  32,H  67)      0.2121         0.028145   
    398. D(H  68,C  33,C  32,C  31)    179.7770         0.028145   
    399. D(C  34,C  33,C  32,H  67)   -179.5105         0.028145   
    400. D(C  34,C  33,C  32,C  31)      0.0544         0.028145   
    401. D(H  69,C  34,C  33,H  68)      0.0825         0.028202   
    402. D(H  69,C  34,C  33,C  32)    179.8053         0.028202   
    403. D(C  35,C  34,C  33,H  68)   -179.7682         0.028202   
    404. D(C  35,C  34,C  33,C  32)     -0.0454         0.028202   
    405. D(H  70,C  35,C  34,H  69)     -0.8068         0.028506   
    406. D(H  70,C  35,C  34,C  33)    179.0441         0.028506   
    407. D(C  30,C  35,C  34,H  69)   -179.8464         0.028506   
    408. D(C  30,C  35,C  34,C  33)      0.0045         0.028506   
    409. D(H  70,C  35,C  30,C  31)   -179.0041         0.027436   
    410. D(H  70,C  35,C  30,P  29)      2.5119         0.027436   
    411. D(C  34,C  35,C  30,C  31)      0.0267         0.027436   
    412. D(C  34,C  35,C  30,P  29)   -178.4573         0.027436   
    413. D(C  41,C  36,P  29,C  30)    111.8455         0.003774   
    414. D(C  41,C  36,P  29,C  28)   -140.7174         0.003774   
    415. D(C  41,C  36,P  29,Rh  1)    -26.6994         0.003774   
    416. D(C  37,C  36,P  29,C  30)    -64.7960         0.003774   
    417. D(C  37,C  36,P  29,C  28)     42.6411         0.003774   
    418. D(C  37,C  36,P  29,Rh  1)    156.6591         0.003774   
    419. D(H  71,C  37,C  36,C  41)   -178.6251         0.026832   
    420. D(H  71,C  37,C  36,P  29)     -2.0166         0.026832   
    421. D(C  38,C  37,C  36,C  41)      1.2293         0.026832   
    422. D(C  38,C  37,C  36,P  29)    177.8378         0.026832   
    423. D(H  72,C  38,C  37,H  71)     -0.5929         0.028713   
    424. D(H  72,C  38,C  37,C  36)    179.5508         0.028713   
    425. D(C  39,C  38,C  37,H  71)    179.2777         0.028713   
    426. D(C  39,C  38,C  37,C  36)     -0.5786         0.028713   
    427. D(H  73,C  39,C  38,H  72)     -0.2081         0.028045   
    428. D(H  73,C  39,C  38,C  37)    179.9216         0.028045   
    429. D(C  40,C  39,C  38,H  72)    179.6105         0.028045   
    430. D(C  40,C  39,C  38,C  37)     -0.2598         0.028045   
    431. D(H  74,C  40,C  39,H  73)      0.1492         0.028275   
    432. D(H  74,C  40,C  39,C  38)   -179.6688         0.028275   
    433. D(C  41,C  40,C  39,H  73)   -179.7493         0.028275   
    434. D(C  41,C  40,C  39,C  38)      0.4326         0.028275   
    435. D(H  75,C  41,C  40,H  74)     -0.5664         0.028489   
    436. D(H  75,C  41,C  40,C  39)    179.3322         0.028489   
    437. D(C  36,C  41,C  40,H  74)   -179.6659         0.028489   
    438. D(C  36,C  41,C  40,C  39)      0.2327         0.028489   
    439. D(H  75,C  41,C  36,C  37)    179.8259         0.027268   
    440. D(H  75,C  41,C  36,P  29)      3.0642         0.027268   
    441. D(C  40,C  41,C  36,C  37)     -1.0585         0.027268   
    442. D(C  40,C  41,C  36,P  29)   -177.8203         0.027268   
    443. D(O  43,C  42,Rh  1,P  29)    -41.8354         0.007491   
    444. D(O  43,C  42,Rh  1,P   2)     83.5329         0.007491   
    445. D(O  43,C  42,Rh  1,H   0)   -109.1510         0.007491   
    -----------------------------------------------------------------

Number of atoms                         .... 76
Number of degrees of freedom            .... 445

         *************************************************************
         *                GEOMETRY OPTIMIZATION CYCLE   1            *
         *************************************************************
---------------------------------
CARTESIAN COORDINATES (ANGSTROEM)
---------------------------------
  H     -3.093630    2.627532    0.490288
  Rh    -2.085962    1.551515    0.062309
  P     -0.635530    0.214089   -1.080601
  C     -0.827638    0.660623   -2.848771
  C     -0.654191   -0.185759   -3.937898
  C     -0.820359    0.292231   -5.226485
  C     -1.145913    1.619816   -5.445883
  C     -1.306070    2.475816   -4.368290
  C     -1.149822    1.996778   -3.081860
  C      1.197029    0.129913   -0.979811
  C      2.032799    0.481052   -2.034015
  C      3.406863    0.395133   -1.895773
  C      3.965752   -0.042281   -0.707890
  C      3.142347   -0.372848    0.354734
  C      1.771622   -0.273054    0.222228
  C     -1.006423   -1.618593   -1.080285
  C     -0.478132   -2.285549    0.148277
  C      0.648854   -3.095001    0.041719
  C      1.218835   -3.689078    1.151982
  C      0.667816   -3.474424    2.403267
  C     -0.452005   -2.673504    2.526150
  C     -1.034603   -2.070781    1.413731
  C     -2.264564   -1.273534    1.627414
  C     -3.472094   -1.788471    1.155232
  C     -4.672982   -1.164819    1.431796
  C     -4.688375   -0.017560    2.208502
  C     -3.499410    0.509107    2.677338
  C     -2.275197   -0.098725    2.392549
  C     -1.018267    0.558575    2.906141
  P     -0.788315    2.069322    1.832323
  C      1.021240    2.304144    1.710521
  C      1.454994    2.943597    0.554053
  C      2.796299    3.205773    0.355899
  C      3.717808    2.828596    1.318405
  C      3.293100    2.191054    2.471795
  C      1.949865    1.927785    2.671206
  C     -1.100504    3.458294    2.990056
  C     -0.600861    3.479789    4.288023
  C     -0.828945    4.571871    5.104202
  C     -1.546759    5.658316    4.631435
  C     -2.032166    5.651189    3.335071
  C     -1.807372    4.557138    2.518928
  C     -3.399655    1.001382   -1.087087
  O     -4.239340    0.554014   -1.736286
  H     -0.383373   -1.221803   -3.797429
  H     -0.692259   -0.377471   -6.064819
  H     -1.275509    1.985190   -6.453861
  H     -1.558733    3.513108   -4.532080
  H     -1.295362    2.656195   -2.223826
  H      1.613549    0.825104   -2.968215
  H      4.043853    0.669345   -2.724512
  H      5.038493   -0.116810   -0.606814
  H      3.568215   -0.704411    1.290403
  H      1.136742   -0.508405    1.062773
  H     -0.557176   -2.079892   -1.961838
  H     -2.095497   -1.690882   -1.148240
  H      1.090369   -3.256800   -0.931869
  H      2.092194   -4.314020    1.040295
  H      1.104416   -3.932136    3.278787
  H     -0.898431   -2.512165    3.497868
  H     -3.459479   -2.707562    0.585098
  H     -5.595187   -1.579693    1.053266
  H     -5.623259    0.468305    2.442974
  H     -3.506509    1.401121    3.291163
  H     -0.153391   -0.098564    2.798071
  H     -1.138014    0.835587    3.956315
  H      0.719160    3.219365   -0.195032
  H      3.125936    3.696081   -0.548124
  H      4.768680    3.027453    1.167979
  H      4.014325    1.894859    3.219995
  H      1.633753    1.415774    3.568633
  H     -0.028774    2.646271    4.669990
  H     -0.443318    4.577227    6.113803
  H     -1.723282    6.508635    5.273677
  H     -2.587850    6.498332    2.960222
  H     -2.191282    4.535871    1.507252

----------------------------
CARTESIAN COORDINATES (A.U.)
----------------------------
  NO LB      ZA    FRAG     MASS         X           Y           Z
   0 H     1.0000    0     1.008   -5.846113    4.965316    0.926510
   1 Rh   17.0000*   0   102.910   -3.941897    2.931938    0.117747
   2 P    15.0000    0    30.974   -1.200978    0.404569   -2.042041
   3 C     6.0000    0    12.011   -1.564008    1.248396   -5.383397
   4 C     6.0000    0    12.011   -1.236242   -0.351033   -7.441548
   5 C     6.0000    0    12.011   -1.550254    0.552236   -9.876624
   6 C     6.0000    0    12.011   -2.165462    3.061008  -10.291228
   7 C     6.0000    0    12.011   -2.468115    4.678614   -8.254872
   8 C     6.0000    0    12.011   -2.172849    3.773363   -5.823872
   9 C     6.0000    0    12.011    2.262057    0.245500   -1.851574
  10 C     6.0000    0    12.011    3.841433    0.909056   -3.843732
  11 C     6.0000    0    12.011    6.438038    0.746693   -3.582492
  12 C     6.0000    0    12.011    7.494185   -0.079900   -1.337719
  13 C     6.0000    0    12.011    5.938175   -0.704581    0.670351
  14 C     6.0000    0    12.011    3.347881   -0.515997    0.419951
  15 C     6.0000    0    12.011   -1.901864   -3.058697   -2.041443
  16 C     6.0000    0    12.011   -0.903539   -4.319062    0.280202
  17 C     6.0000    0    12.011    1.226156   -5.848705    0.078838
  18 C     6.0000    0    12.011    2.303265   -6.971348    2.176930
  19 C     6.0000    0    12.011    1.261989   -6.565710    4.541516
  20 C     6.0000    0    12.011   -0.854165   -5.052190    4.773731
  21 C     6.0000    0    12.011   -1.955116   -3.913209    2.671563
  22 C     6.0000    0    12.011   -4.279406   -2.406631    3.075366
  23 C     6.0000    0    12.011   -6.561307   -3.379721    2.183072
  24 C     6.0000    0    12.011   -8.830656   -2.201190    2.705701
  25 C     6.0000    0    12.011   -8.859746   -0.033184    4.173464
  26 C     6.0000    0    12.011   -6.612927    0.962074    5.059436
  27 C     6.0000    0    12.011   -4.299499   -0.186563    4.521262
  28 C     6.0000    0    12.011   -1.924246    1.055554    5.491810
  29 P    15.0000    0    30.974   -1.489700    3.910452    3.462589
  30 C     6.0000    0    12.011    1.929864    4.354201    3.232416
  31 C     6.0000    0    12.011    2.749540    5.562593    1.047008
  32 C     6.0000    0    12.011    5.284238    6.058034    0.672551
  33 C     6.0000    0    12.011    7.025639    5.345272    2.491424
  34 C     6.0000    0    12.011    6.223057    4.140491    4.671016
  35 C     6.0000    0    12.011    3.684710    3.642986    5.047848
  36 C     6.0000    0    12.011   -2.079651    6.535228    5.650387
  37 C     6.0000    0    12.011   -1.135463    6.575848    8.103189
  38 C     6.0000    0    12.011   -1.566479    8.639585    9.645543
  39 C     6.0000    0    12.011   -2.922950   10.692668    8.752144
  40 C     6.0000    0    12.011   -3.840237   10.679200    6.302371
  41 C     6.0000    0    12.011   -3.415438    8.611743    4.760084
  42 C     6.0000    0    12.011   -6.424416    1.892338   -2.054296
  43 O     8.0000    0    15.999   -8.011192    1.046934   -3.281105
  44 H     1.0000    0     1.008   -0.724469   -2.308872   -7.176101
  45 H     1.0000    0     1.008   -1.308180   -0.713316  -11.460846
  46 H     1.0000    0     1.008   -2.410362    3.751465  -12.196029
  47 H     1.0000    0     1.008   -2.945579    6.638812   -8.564390
  48 H     1.0000    0     1.008   -2.447879    5.019482   -4.202423
  49 H     1.0000    0     1.008    3.049165    1.559220   -5.609114
  50 H     1.0000    0     1.008    7.641774    1.264878   -5.148581
  51 H     1.0000    0     1.008    9.521373   -0.220739   -1.146712
  52 H     1.0000    0     1.008    6.742950   -1.331144    2.438509
  53 H     1.0000    0     1.008    2.148132   -0.960746    2.008351
  54 H     1.0000    0     1.008   -1.052910   -3.930426   -3.707337
  55 H     1.0000    0     1.008   -3.959916   -3.195303   -2.169859
  56 H     1.0000    0     1.008    2.060498   -6.154460   -1.760977
  57 H     1.0000    0     1.008    3.953674   -8.152316    1.965872
  58 H     1.0000    0     1.008    2.087043   -7.430660    6.196009
  59 H     1.0000    0     1.008   -1.697789   -4.747305    6.610012
  60 H     1.0000    0     1.008   -6.537468   -5.116551    1.105675
  61 H     1.0000    0     1.008  -10.573371   -2.985186    1.990385
  62 H     1.0000    0     1.008  -10.626420    0.884967    4.616551
  63 H     1.0000    0     1.008   -6.626341    2.647735    6.219396
  64 H     1.0000    0     1.008   -0.289866   -0.186259    5.287589
  65 H     1.0000    0     1.008   -2.150534    1.579031    7.476351
  66 H     1.0000    0     1.008    1.359015    6.083719   -0.368557
  67 H     1.0000    0     1.008    5.907163    6.984581   -1.035804
  68 H     1.0000    0     1.008    9.011500    5.721056    2.207160
  69 H     1.0000    0     1.008    7.585976    3.580764    6.084908
  70 H     1.0000    0     1.008    3.087346    2.675426    6.743739
  71 H     1.0000    0     1.008   -0.054376    5.000727    8.825002
  72 H     1.0000    0     1.008   -0.837749    8.649705   11.553413
  73 H     1.0000    0     1.008   -3.256531   12.299538    9.965806
  74 H     1.0000    0     1.008   -4.890327   12.280067    5.594008
  75 H     1.0000    0     1.008   -4.140923    8.571554    2.848294
* core charge reduced due to ECP

--------------------------------
INTERNAL COORDINATES (ANGSTROEM)
--------------------------------
 H      0   0   0     0.000000000000     0.00000000     0.00000000
 Rh     1   0   0     1.535048474367     0.00000000     0.00000000
 P      2   1   0     2.280066851364   165.58257930     0.00000000
 C      3   2   1     1.833772635981   105.89368270   350.03922678
 C      4   3   2     1.390194994377   126.44744979   210.51475271
 C      5   4   3     1.384392140749   120.26726769   180.62692318
 C      6   5   4     1.384414206369   120.45311242     0.72515212
 C      7   6   5     1.385494193666   119.76165958     0.00000000
 C      8   7   6     1.381590500492   119.79537955   359.51251887
 C      3   2   1     1.837257907237   129.33728365   107.42295613
 C     10   3   2     1.390380148812   123.12079959   245.56499074
 C     11  10   3     1.383670580062   120.36460087   180.02779915
 C     12  11  10     1.383746187079   120.43019580     0.06426661
 C     13  12  11     1.384356078934   119.61658085   358.86428923
 C     14  13  12     1.380725451262   119.97096667     0.40849545
 C      3   2   1     1.869834996838   116.65723593   236.67190475
 C     16   3   2     1.494418369595   111.55835916   276.23536381
 C     17  16   3     1.391640844061   118.87652270   253.44893022
 C     18  17  16     1.382204639669   121.49610682   177.03285650
 C     19  18  17     1.383984118294   119.69568998   359.65170979
 C     20  19  18     1.382234240373   119.52493023     0.37009872
 C     21  20  19     1.392900448047   121.23741733   359.66202093
 C     22  21  20     1.481238773927   117.70990866   177.55187061
 C     23  22  21     1.395078661480   118.11464287   251.05588835
 C     24  23  22     1.381144819567   121.20838394   173.64737577
 C     25  24  23     1.385537261977   119.72280184   359.02080391
 C     26  25  24     1.382325817644   119.73913413     1.32871776
 C     27  26  25     1.396160413251   121.27416537   359.50229104
 C     28  27  26     1.508540020741   118.12862275   178.24562355
 P     29  28  27     1.867704050369   105.02777503   287.00984045
 C     30  29  28     1.828788381306   105.30637275   212.08343034
 C     31  30  29     1.390849306998   115.02389327   152.70473864
 C     32  31  30     1.380977808515   120.63022873   178.62088605
 C     33  32  31     1.384868332449   119.66078551   359.97691619
 C     34  33  32     1.384610616408   120.01681280     0.05443520
 C     35  34  33     1.383241089333   120.37035921   359.95459496
 C     30  29  28     1.834951984192   103.21394093   111.43460965
 C     37  30  29     1.390979262148   122.63792639    42.64111853
 C     38  37  30     1.382322266346   120.25825010   177.83782862
 C     39  38  37     1.385325263765   120.23744197   359.42142446
 C     40  39  38     1.384280122439   119.81825908   359.74020260
 C     41  40  39     1.383318122181   119.97404625     0.43262347
 C      2   1  30     1.830176035005    85.10152557   168.17943940
 O     43   2   1     1.151811690484   173.72478480   250.84898310
 H      5   4   3     1.080028286210   120.89181229     0.28541476
 H      6   5   4     1.080607999786   119.59737566   180.58988556
 H      7   6   5     1.079959269016   120.03757395   180.09809868
 H      8   7   6     1.080111406349   120.16128371   179.91696095
 H      9   8   7     1.091895372897   120.47908166   181.37236828
 H     11  10   3     1.080218821004   120.18931001     0.12690555
 H     12  11  10     1.080627561551   119.53745511   179.86412574
 H     13  12  11     1.080067157422   120.21898244   179.42825046
 H     14  13  12     1.080173242515   120.24516760   180.71406759
 H     15  14  13     1.079341930904   119.56785097   181.54584814
 H     16   3   2     1.091675462809   109.41453286   155.22241286
 H     16   3   2     1.093584278918   105.20755963    37.81724618
 H     18  17  16     1.081197478469   119.12323163   357.39592235
 H     19  18  17     1.079713581631   119.94978000   179.88856298
 H     20  19  18     1.080118101081   120.41098230   180.06001622
 H     21  20  19     1.081463343208   120.04988972   179.07285311
 H     24  23  22     1.081637971812   118.81284887   355.27137255
 H     25  24  23     1.079753031986   119.92876305   179.81034539
 H     26  25  24     1.079374421224   120.27301797   180.95776937
 H     27  26  25     1.082829228108   120.03213079   180.47729262
 H     29  28  27     1.091568342361   111.35571407   168.67585853
 H     29  28  27     1.092675981204   110.26510048    46.84955129
 H     32  31  30     1.085646399362   118.62818124   357.77039784
 H     33  32  31     1.079962670338   120.18313515   179.54167869
 H     34  33  32     1.080048350792   120.03257041   179.77696974
 H     35  34  33     1.080601964966   119.88448793   179.80530644
 H     36  35  34     1.080488978612   119.60578572   179.04411373
 H     38  37  30     1.080710006607   120.53314687   357.98344860
 H     39  38  37     1.080755353800   119.77583451   179.55081059
 H     40  39  38     1.080128727710   119.94432695   179.92158943
 H     41  40  39     1.080252918048   120.08633908   180.33116731
 H     42  41  40     1.082278737638   120.62376695   179.33224550

---------------------------
INTERNAL COORDINATES (A.U.)
---------------------------
 H      0   0   0     0.000000000000     0.00000000     0.00000000
 Rh     1   0   0     2.900821218848     0.00000000     0.00000000
 P      2   1   0     4.308701916111   165.58257930     0.00000000
 C      3   2   1     3.465328073883   105.89368270   350.03922678
 C      4   3   2     2.627087812120   126.44744979   210.51475271
 C      5   4   3     2.616122007969   120.26726769   180.62692318
 C      6   5   4     2.616163705948   120.45311242     0.72515212
 C      7   6   5     2.618204586167   119.76165958     0.00000000
 C      8   7   6     2.610827675157   119.79537955   359.51251887
 C      3   2   1     3.471914282059   129.33728365   107.42295613
 C     10   3   2     2.627437703296   123.12079959   245.56499074
 C     11  10   3     2.614758455882   120.36460087   180.02779915
 C     12  11  10     2.614901332438   120.43019580     0.06426661
 C     13  12  11     2.616053861015   119.61658085   358.86428923
 C     14  13  12     2.609192969021   119.97096667     0.40849545
 C      3   2   1     3.533476059646   116.65723593   236.67190475
 C     16   3   2     2.824041448035   111.55835916   276.23536381
 C     17  16   3     2.629820072054   118.87652270   253.44893022
 C     18  17  16     2.611988230011   121.49610682   177.03285650
 C     19  18  17     2.615350957272   119.69568998   359.65170979
 C     20  19  18     2.612044167233   119.52493023     0.37009872
 C     21  20  19     2.632200378626   121.23741733   359.66202093
 C     22  21  20     2.799135621667   117.70990866   177.55187061
 C     23  22  21     2.636316605475   118.11464287   251.05588835
 C     24  23  22     2.609985460265   121.20838394   173.64737577
 C     25  24  23     2.618285973479   119.72280184   359.02080391
 C     26  25  24     2.612217223195   119.73913413     1.32871776
 C     27  26  25     2.638360820068   121.27416537   359.50229104
 C     28  27  26     2.850727501261   118.12862275   178.24562355
 P     29  28  27     3.529449154413   105.02777503   287.00984045
 C     30  29  28     3.455909197565   105.30637275   212.08343034
 C     31  30  29     2.628324283780   115.02389327   152.70473864
 C     32  31  30     2.609669855116   120.63022873   178.62088605
 C     33  32  31     2.617021879869   119.66078551   359.97691619
 C     34  33  32     2.616534867131   120.01681280     0.05443520
 C     35  34  33     2.613946836026   120.37035921   359.95459496
 C     30  29  28     3.467556719019   103.21394093   111.43460965
 C     37  30  29     2.628569863423   122.63792639    42.64111853
 C     38  37  30     2.612210512215   120.25825010   177.83782862
 C     39  38  37     2.617885354918   120.23744197   359.42142446
 C     40  39  38     2.615910324040   119.81825908   359.74020260
 C     41  40  39     2.614092407012   119.97404625     0.43262347
 C      2   1  30     3.458531483026    85.10152557   168.17943940
 O     43   2   1     2.176608652864   173.72478480   250.84898310
 H      5   4   3     2.040957677826   120.89181229     0.28541476
 H      6   5   4     2.042053177721   119.59737566   180.58988556
 H      7   6   5     2.040827254231   120.03757395   180.09809868
 H      8   7   6     2.041114752124   120.16128371   179.91696095
 H      9   8   7     2.063383221671   120.47908166   181.37236828
 H     11  10   3     2.041317736404   120.18931001     0.12690555
 H     12  11  10     2.042090144099   119.53745511   179.86412574
 H     13  12  11     2.041031133771   120.21898244   179.42825046
 H     14  13  12     2.041231605544   120.24516760   180.71406759
 H     15  14  13     2.039660654266   119.56785097   181.54584814
 H     16   3   2     2.062967651830   109.41453286   155.22241286
 H     16   3   2     2.066574791517   105.20755963    37.81724618
 H     18  17  16     2.043167130992   119.12323163   357.39592235
 H     19  18  17     2.040362972359   119.94978000   179.88856298
 H     20  19  18     2.041127403333   120.41098230   180.06001622
 H     21  20  19     2.043669542537   120.04988972   179.07285311
 H     24  23  22     2.043999542775   118.81284887   355.27137255
 H     25  24  23     2.040437522725   119.92876305   179.81034539
 H     26  25  24     2.039722052073   120.27301797   180.95776937
 H     27  26  25     2.046250690929   120.03213079   180.47729262
 H     29  28  27     2.062765223521   111.35571407   168.67585853
 H     29  28  27     2.064858357589   110.26510048    46.84955129
 H     32  31  30     2.051574373073   118.62818124   357.77039784
 H     33  32  31     2.040833681796   120.18313515   179.54167869
 H     34  33  32     2.040995594391   120.03257041   179.77696974
 H     35  34  33     2.042041773564   119.88448793   179.80530644
 H     36  35  34     2.041828260297   119.60578572   179.04411373
 H     38  37  30     2.042245942676   120.53314687   357.98344860
 H     39  38  37     2.042331636451   119.77583451   179.55081059
 H     40  39  38     2.041147484753   119.94432695   179.92158943
 H     41  40  39     2.041382170480   120.08633908   180.33116731
 H     42  41  40     2.045210414701   120.62376695   179.33224550

---------------------
BASIS SET INFORMATION
---------------------
There are 5 groups of distinct atoms

 Group   1 Type H   : 4s1p contracted to 2s1p pattern {31/1}
 Group   2 Type Rh  : 7s7p6d1f contracted to 6s4p3d1f pattern {211111/4111/411/1}
 Group   3 Type P   : 10s7p1d contracted to 4s3p1d pattern {5311/511/1}
 Group   4 Type C   : 7s4p1d contracted to 3s2p1d pattern {511/31/1}
 Group   5 Type O   : 7s4p1d contracted to 3s2p1d pattern {511/31/1}

Atom   0H    basis set group =>   1
Atom   1Rh   basis set group =>   2
Atom   2P    basis set group =>   3
Atom   3C    basis set group =>   4
Atom   4C    basis set group =>   4
Atom   5C    basis set group =>   4
Atom   6C    basis set group =>   4
Atom   7C    basis set group =>   4
Atom   8C    basis set group =>   4
Atom   9C    basis set group =>   4
Atom  10C    basis set group =>   4
Atom  11C    basis set group =>   4
Atom  12C    basis set group =>   4
Atom  13C    basis set group =>   4
Atom  14C    basis set group =>   4
Atom  15C    basis set group =>   4
Atom  16C    basis set group =>   4
Atom  17C    basis set group =>   4
Atom  18C    basis set group =>   4
Atom  19C    basis set group =>   4
Atom  20C    basis set group =>   4
Atom  21C    basis set group =>   4
Atom  22C    basis set group =>   4
Atom  23C    basis set group =>   4
Atom  24C    basis set group =>   4
Atom  25C    basis set group =>   4
Atom  26C    basis set group =>   4
Atom  27C    basis set group =>   4
Atom  28C    basis set group =>   4
Atom  29P    basis set group =>   3
Atom  30C    basis set group =>   4
Atom  31C    basis set group =>   4
Atom  32C    basis set group =>   4
Atom  33C    basis set group =>   4
Atom  34C    basis set group =>   4
Atom  35C    basis set group =>   4
Atom  36C    basis set group =>   4
Atom  37C    basis set group =>   4
Atom  38C    basis set group =>   4
Atom  39C    basis set group =>   4
Atom  40C    basis set group =>   4
Atom  41C    basis set group =>   4
Atom  42C    basis set group =>   4
Atom  43O    basis set group =>   5
Atom  44H    basis set group =>   1
Atom  45H    basis set group =>   1
Atom  46H    basis set group =>   1
Atom  47H    basis set group =>   1
Atom  48H    basis set group =>   1
Atom  49H    basis set group =>   1
Atom  50H    basis set group =>   1
Atom  51H    basis set group =>   1
Atom  52H    basis set group =>   1
Atom  53H    basis set group =>   1
Atom  54H    basis set group =>   1
Atom  55H    basis set group =>   1
Atom  56H    basis set group =>   1
Atom  57H    basis set group =>   1
Atom  58H    basis set group =>   1
Atom  59H    basis set group =>   1
Atom  60H    basis set group =>   1
Atom  61H    basis set group =>   1
Atom  62H    basis set group =>   1
Atom  63H    basis set group =>   1
Atom  64H    basis set group =>   1
Atom  65H    basis set group =>   1
Atom  66H    basis set group =>   1
Atom  67H    basis set group =>   1
Atom  68H    basis set group =>   1
Atom  69H    basis set group =>   1
Atom  70H    basis set group =>   1
Atom  71H    basis set group =>   1
Atom  72H    basis set group =>   1
Atom  73H    basis set group =>   1
Atom  74H    basis set group =>   1
Atom  75H    basis set group =>   1
---------------------------------
AUXILIARY/J BASIS SET INFORMATION
---------------------------------
There are 5 groups of distinct atoms

 Group   1 Type H   : 5s2p1d contracted to 3s1p1d pattern {311/2/1}
 Group   2 Type Rh  : 11s5p5d3f3g contracted to 8s5p5d2f3g pattern {41111111/11111/11111/21/111}
 Group   3 Type P   : 14s5p5d2f1g contracted to 8s4p3d1f1g pattern {71111111/2111/311/2/1}
 Group   4 Type C   : 12s5p4d2f1g contracted to 6s4p3d1f1g pattern {711111/2111/211/2/1}
 Group   5 Type O   : 12s5p4d2f1g contracted to 6s4p3d1f1g pattern {711111/2111/211/2/1}

Atom   0H    basis set group =>   1
Atom   1Rh   basis set group =>   2
Atom   2P    basis set group =>   3
Atom   3C    basis set group =>   4
Atom   4C    basis set group =>   4
Atom   5C    basis set group =>   4
Atom   6C    basis set group =>   4
Atom   7C    basis set group =>   4
Atom   8C    basis set group =>   4
Atom   9C    basis set group =>   4
Atom  10C    basis set group =>   4
Atom  11C    basis set group =>   4
Atom  12C    basis set group =>   4
Atom  13C    basis set group =>   4
Atom  14C    basis set group =>   4
Atom  15C    basis set group =>   4
Atom  16C    basis set group =>   4
Atom  17C    basis set group =>   4
Atom  18C    basis set group =>   4
Atom  19C    basis set group =>   4
Atom  20C    basis set group =>   4
Atom  21C    basis set group =>   4
Atom  22C    basis set group =>   4
Atom  23C    basis set group =>   4
Atom  24C    basis set group =>   4
Atom  25C    basis set group =>   4
Atom  26C    basis set group =>   4
Atom  27C    basis set group =>   4
Atom  28C    basis set group =>   4
Atom  29P    basis set group =>   3
Atom  30C    basis set group =>   4
Atom  31C    basis set group =>   4
Atom  32C    basis set group =>   4
Atom  33C    basis set group =>   4
Atom  34C    basis set group =>   4
Atom  35C    basis set group =>   4
Atom  36C    basis set group =>   4
Atom  37C    basis set group =>   4
Atom  38C    basis set group =>   4
Atom  39C    basis set group =>   4
Atom  40C    basis set group =>   4
Atom  41C    basis set group =>   4
Atom  42C    basis set group =>   4
Atom  43O    basis set group =>   5
Atom  44H    basis set group =>   1
Atom  45H    basis set group =>   1
Atom  46H    basis set group =>   1
Atom  47H    basis set group =>   1
Atom  48H    basis set group =>   1
Atom  49H    basis set group =>   1
Atom  50H    basis set group =>   1
Atom  51H    basis set group =>   1
Atom  52H    basis set group =>   1
Atom  53H    basis set group =>   1
Atom  54H    basis set group =>   1
Atom  55H    basis set group =>   1
Atom  56H    basis set group =>   1
Atom  57H    basis set group =>   1
Atom  58H    basis set group =>   1
Atom  59H    basis set group =>   1
Atom  60H    basis set group =>   1
Atom  61H    basis set group =>   1
Atom  62H    basis set group =>   1
Atom  63H    basis set group =>   1
Atom  64H    basis set group =>   1
Atom  65H    basis set group =>   1
Atom  66H    basis set group =>   1
Atom  67H    basis set group =>   1
Atom  68H    basis set group =>   1
Atom  69H    basis set group =>   1
Atom  70H    basis set group =>   1
Atom  71H    basis set group =>   1
Atom  72H    basis set group =>   1
Atom  73H    basis set group =>   1
Atom  74H    basis set group =>   1
Atom  75H    basis set group =>   1
-------------------------
ECP PARAMETER INFORMATION
-------------------------

 Group 1, Type Rh ECP Def2-ECP (replacing 28 core electrons, lmax=3)

Atom   1Rh   ECP group =>   1

--------------------------------------------------------------------------
[[48489,1],5]: A high-performance Open MPI point-to-point messaging module
was unable to find any relevant network interfaces:

Module: OpenFabrics (openib)
  Host: eu-g5-037-3

Another transport will be used instead, although this may result in
lower performance.

NOTE: You can disable this warning by setting the MCA parameter
btl_base_warn_component_unused to 0.
--------------------------------------------------------------------------


           ************************************************************
           *        Program running with 20 parallel MPI-processes    *
           *              working on a common directory               *
           ************************************************************
------------------------------------------------------------------------------
                           ORCA GTO INTEGRAL CALCULATION
                           -- RI-GTO INTEGRALS CHOSEN --
------------------------------------------------------------------------------

                         BASIS SET STATISTICS AND STARTUP INFO

Gaussian basis set:
 # of primitive gaussian shells          ...  702
 # of primitive gaussian functions       ... 1328
 # of contracted shells                  ...  369
 # of contracted basis functions         ...  801
 Highest angular momentum                ...    3
 Maximum contraction depth               ...    5
Auxiliary gaussian basis set:
 # of primitive gaussian shells          ... 1305
 # of primitive gaussian functions       ... 3581
 # of contracted shells                  ...  822
 # of contracted aux-basis functions     ... 2514
 Highest angular momentum                ...    4
 Maximum contraction depth               ...    7
Ratio of auxiliary to basis functions    ...  3.14
Integral package used                  ... LIBINT
 One Electron integrals                  
   ECP integrals                         ... done
 Ordering auxiliary basis shells         ... done
 Integral threshhold             Thresh  ...  2.500e-11
 Primitive cut-off               TCut    ...  2.500e-12
 Pre-screening matrix                    ... done
 Shell pair data                         ... 
 Ordering of the shell pairs             ... done (   0.010 sec) 45808 of 68265 pairs
 Determination of significant pairs      ... done (   0.000 sec)
 Creation of shell pair data             ... done (   0.007 sec)
 Storage of shell pair data              ... done (   0.021 sec)
 Shell pair data done in (   0.038 sec)
 Computing two index integrals           ... done
 Cholesky decomposition of the V-matrix  ... done


Timings:
 Total evaluation time                   ...   2.939 sec (  0.049 min)
 One electron matrix time                ...   1.558 sec (  0.026 min) = 53.0%
 Schwartz matrix evaluation time         ...   0.324 sec (  0.005 min) = 11.0%
 Two index repulsion integral time       ...   0.244 sec (  0.004 min) =  8.3%
 Cholesky decomposition of V             ...   0.748 sec (  0.012 min) = 25.4%
 Three index repulsion integral time     ...   0.000 sec (  0.000 min) =  0.0%

--------------------------------------------------------------------------
[[48521,1],2]: A high-performance Open MPI point-to-point messaging module
was unable to find any relevant network interfaces:

Module: OpenFabrics (openib)
  Host: eu-g5-037-3

Another transport will be used instead, although this may result in
lower performance.

NOTE: You can disable this warning by setting the MCA parameter
btl_base_warn_component_unused to 0.
--------------------------------------------------------------------------


           ************************************************************
           *        Program running with 20 parallel MPI-processes    *
           *              working on a common directory               *
           ************************************************************
-------------------------------------------------------------------------------
                                 ORCA SCF
-------------------------------------------------------------------------------

------------
SCF SETTINGS
------------
Hamiltonian:
 Density Functional     Method          .... DFT(GTOs)
 Exchange Functional    Exchange        .... PBE
   PBE kappa parameter   XKappa         ....  0.804000
   PBE mue parameter    XMuePBE         ....  0.219520
 Correlation Functional Correlation     .... PBE
   PBE beta parameter  CBetaPBE         ....  0.066725
 LDA part of GGA corr.  LDAOpt          .... PW91-LDA
 Gradients option       PostSCFGGA      .... off
 Hybrid DFT is turned on
   Fraction HF Exchange ScalHFX         ....  0.250000
   Scaling of DF-GGA-X  ScalDFX         ....  0.750000
   Scaling of DF-GGA-C  ScalDFC         ....  1.000000
   Scaling of DF-LDA-C  ScalLDAC        ....  1.000000
   Perturbative correction              ....  0.000000
   Density functional embedding theory  .... OFF
   NL short-range parameter             ....  6.900000
 RI-approximation to the Coulomb term is turned on
   Number of auxiliary basis functions  .... 2514
   RIJ-ON(X) (HFX calculated with O(N)) .... on


General Settings:
 Integral files         IntName         .... TEP_Rh
 Hartree-Fock type      HFTyp           .... RHF
 Total Charge           Charge          ....    0
 Multiplicity           Mult            ....    1
 Number of Electrons    NEL             ....  322
 Basis Dimension        Dim             ....  801
 Nuclear Repulsion      ENuc            ....   6126.8685082216 Eh

Convergence Acceleration:
 DIIS                   CNVDIIS         .... on
   Start iteration      DIISMaxIt       ....    12
   Startup error        DIISStart       ....  0.200000
   # of expansion vecs  DIISMaxEq       ....     5
   Bias factor          DIISBfac        ....   1.050
   Max. coefficient     DIISMaxC        ....  10.000
 Newton-Raphson         CNVNR           .... off
 SOSCF                  CNVSOSCF        .... off
 Level Shifting         CNVShift        .... on
   Level shift para.    LevelShift      ....    0.2500
   Turn off err/grad.   ShiftErr        ....    0.0010
 Zerner damping         CNVZerner       .... off
 Static damping         CNVDamp         .... on
   Fraction old density DampFac         ....    0.7000
   Max. Damping (<1)    DampMax         ....    0.9800
   Min. Damping (>=0)   DampMin         ....    0.0000
   Turn off err/grad.   DampErr         ....    0.1000
 Fernandez-Rico         CNVRico         .... off

SCF Procedure:
 Maximum # iterations   MaxIter         ....   125
 SCF integral mode      SCFMode         .... Direct
   Integral package                     .... LIBINT
 Reset frequency        DirectResetFreq ....    20
 Integral Threshold     Thresh          ....  2.500e-11 Eh
 Primitive CutOff       TCut            ....  2.500e-12 Eh

Convergence Tolerance:
 Convergence Check Mode ConvCheckMode   .... Total+1el-Energy
 Convergence forced     ConvForced      .... 0
 Energy Change          TolE            ....  1.000e-08 Eh
 1-El. energy change                    ....  1.000e-05 Eh
 DIIS Error             TolErr          ....  5.000e-07


Diagonalization of the overlap matrix:
Smallest eigenvalue                        ... 1.867e-04
Time for diagonalization                   ...    0.641 sec
Threshold for overlap eigenvalues          ... 1.000e-08
Number of eigenvalues below threshold      ... 0
Time for construction of square roots      ...    0.633 sec
Total time needed                          ...    1.276 sec

-------------------
DFT GRID GENERATION
-------------------

General Integration Accuracy     IntAcc      ...  4.340
Radial Grid Type                 RadialGrid  ... Gauss-Chebyshev
Angular Grid (max. acc.)         AngularGrid ... Lebedev-110
Angular grid pruning method      GridPruning ... 3 (G Style)
Weight generation scheme         WeightScheme... Becke
Basis function cutoff            BFCut       ...    1.0000e-11
Integration weight cutoff        WCut        ...    1.0000e-14
Grids for H and He will be reduced by one unit

# of grid points (after initial pruning)     ...  99394 (   0.0 sec)
# of grid points (after weights+screening)   ...  85028 (   1.0 sec)
nearest neighbour list constructed           ...    0.0 sec
Grid point re-assignment to atoms done       ...    0.0 sec
Grid point division into batches done        ...    0.1 sec
Reduced shell lists constructed in    0.2 sec

Total number of grid points                  ...    85028
Total number of batches                      ...     1367
Average number of points per batch           ...       62
Average number of grid points per atom       ...     1119
Average number of shells per batch           ...   195.31 (52.93%)
Average number of basis functions per batch  ...   400.20 (49.96%)
Average number of large shells per batch     ...   118.20 (60.52%)
Average number of large basis fcns per batch ...   243.00 (60.72%)
Maximum spatial batch extension              ...  14.09, 10.65,  6.42 au
Average spatial batch extension              ...   0.11,  0.11,  0.10 au

Time for grid setup =    1.286 sec

------------------------------
INITIAL GUESS: MODEL POTENTIAL
------------------------------
Loading Hartree-Fock densities                     ... done
  calling /cluster/apps/orca/4.2.0/x86_64/bin/orca TEP_Rh_atom45.inp > TEP_Rh_atom45.out in order to generate an atomic fitting density for atom 1 (Rh with ECP) on-the-fly... 
    atom 1 (Rh), assumed electronic state with S=4: 1s2 2s2 2p6 3s2 3p6 4s2 3d10 4p6 5s2 4d7           ... done
Calculating cut-offs                               ... done
Setting up the integral package                    ... done
Initializing the effective Hamiltonian             ... done
Starting the Coulomb interaction                   ... done (   0.3 sec)
Reading the grid                                   ... done
Mapping shells                                     ... done
Starting the XC term evaluation                    ... done (   0.2 sec)
  promolecular density results
     # of electrons  =    349.980859027
     EX              =   -396.219643770
     EC              =    -12.797754073
     EX+EC           =   -409.017397843
Transforming the Hamiltonian                       ... done (   0.2 sec)
Diagonalizing the Hamiltonian                      ... done (   0.3 sec)
Back transforming the eigenvectors                 ... done (   0.0 sec)
Now organizing SCF variables                       ... done
                      ------------------
                      INITIAL GUESS DONE (   5.4 sec)
                      ------------------
--------------
SCF ITERATIONS
--------------
ITER       Energy         Delta-E        Max-DP      RMS-DP      [F,P]     Damp
               ***  Starting incremental Fock matrix formation  ***
  0  -2370.3168956338   0.000000000000 0.13194951  0.00121877  0.4476575 0.7000
  1  -2370.6799727628  -0.363077129063 0.07583745  0.00083762  0.2892553 0.7000
                               ***Turning on DIIS***
  2  -2370.8356741959  -0.155701433034 0.03073170  0.00046126  0.1933801 0.7000
  3  -2370.9274446113  -0.091770415419 0.02481376  0.00024904  0.1370023 0.7000
  4  -2370.9907685936  -0.063323982354 0.08066843  0.00054752  0.0972101 0.0000
  5  -2371.1352997738  -0.144531180152 0.00910801  0.00007971  0.0076594 0.0000
  6  -2371.1353437535  -0.000043979685 0.00779478  0.00003477  0.0115452 0.0000
  7  -2371.1355955436  -0.000251790126 0.00182090  0.00001481  0.0009306 0.0000
  8  -2371.1356023468  -0.000006803183 0.00080603  0.00000594  0.0008984 0.0000
  9  -2371.1356046161  -0.000002269371 0.00031446  0.00000312  0.0005071 0.0000
 10  -2371.1356055288  -0.000000912619 0.00013405  0.00000131  0.0000674 0.0000
 11  -2371.1356056529  -0.000000124107 0.00005161  0.00000062  0.0000390 0.0000
 12  -2371.1356056449   0.000000008015 0.00003953  0.00000028  0.0000467 0.0000
 13  -2371.1356056978  -0.000000052922 0.00001355  0.00000010  0.0000197 0.0000
 14  -2371.1356056751   0.000000022630 0.00000504  0.00000004  0.0000090 0.0000
 15  -2371.1356056309   0.000000044262 0.00000165  0.00000002  0.0000031 0.0000
                            ***DIIS convergence achieved***

               *****************************************************
               *                     SUCCESS                       *
               *           SCF CONVERGED AFTER  16 CYCLES          *
               *****************************************************

Setting up the final grid:

General Integration Accuracy     IntAcc      ...  4.670
Radial Grid Type                 RadialGrid  ... Gauss-Chebyshev
Angular Grid (max. acc.)         AngularGrid ... Lebedev-302
Angular grid pruning method      GridPruning ... 3 (G Style)
Weight generation scheme         WeightScheme... Becke
Basis function cutoff            BFCut       ...    1.0000e-11
Integration weight cutoff        WCut        ...    1.0000e-14
Grids for H and He will be reduced by one unit

# of grid points (after initial pruning)     ... 384772 (   0.0 sec)
# of grid points (after weights+screening)   ... 319975 (   0.9 sec)
nearest neighbour list constructed           ...    0.0 sec
Grid point re-assignment to atoms done       ...    0.1 sec
[...]
 171:      1473.70    7.499668  ( -2.059441   0.952804  -1.533146)
 172:      1474.99   10.062503  ( -1.082235   1.170786   2.742359)
 173:      1475.50   14.568576  (  1.865408  -3.267497  -0.642102)
 174:      1476.37   27.887494  ( -0.851355   0.264265  -5.205080)
 175:      1496.05    7.292585  ( -0.988636  -2.333145   0.933604)
 176:      1517.11   11.457316  (  2.096295  -1.607873  -2.116036)
 177:      1518.36    9.389275  (  1.660580   0.029142  -2.575053)
 178:      1519.71   15.341069  ( -3.457408   0.895523  -1.607930)
 179:      1520.85    9.349031  (  2.036401   1.938438   1.201900)
 180:      1522.49   21.203710  ( -4.051979   1.446780  -1.640733)
 181:      1553.77    8.227217  (  0.909385   2.593375  -0.821365)
 182:      1649.66    0.620347  ( -0.228014   0.724573   0.208209)
 183:      1654.81    0.532051  (  0.092883  -0.018942   0.723232)
 184:      1656.74    0.288239  ( -0.180484   0.327621   0.385135)
 185:      1657.49    2.064670  (  0.396607  -0.039029  -1.380525)
 186:      1658.66    0.580479  ( -0.105736  -0.527469   0.539513)
 187:      1658.84    3.138608  ( -0.520479  -1.646089  -0.397621)
 188:      1673.39    0.238304  ( -0.266632   0.251800   0.322193)
 189:      1674.63    0.033858  (  0.078267  -0.141334  -0.088075)
 190:      1674.94    0.121635  ( -0.231638   0.152017   0.211826)
 191:      1675.92    0.553317  ( -0.620292  -0.410438   0.009781)
 192:      1683.65    0.363004  ( -0.277861   0.069928   0.530007)
 193:      1690.25    3.084018  (  0.641319   1.480844  -0.692698)
 194:      2016.27  149.937096  ( -8.274517   7.040121   5.648554)
 195:      2113.06  871.970293  ( 25.387112   2.458491  14.880210)
 196:      3088.91    8.425994  ( -1.839909  -1.212698  -1.889469)
 197:      3098.90    4.929397  ( -0.379190  -0.622777  -2.097084)
 198:      3168.04    2.089116  ( -1.046949  -0.442223   0.893002)
 199:      3169.03    2.093347  ( -0.009576  -1.265413  -0.701417)
 200:      3188.71    1.820247  ( -0.513493   0.150131   1.238561)
 201:      3191.08    0.027931  ( -0.148100   0.035613  -0.068769)
 202:      3197.68    1.822730  (  1.321365  -0.045314   0.273261)
 203:      3197.98    3.016124  ( -0.500598   0.026934   1.662769)
 204:      3198.28    1.378053  (  0.462877   1.049132   0.251238)
 205:      3198.41    4.040872  ( -0.164469   0.854226   1.812214)
 206:      3199.46    1.523811  (  0.205387  -0.728569   0.975097)
 207:      3200.57    0.924923  (  0.239454  -0.260990   0.894130)
 208:      3202.79    1.463803  ( -1.066137   0.555726   0.135367)
 209:      3203.50    5.052116  ( -0.189640  -1.423518  -1.729090)
 210:      3203.67    1.159341  ( -0.666707   0.674993  -0.509144)
 211:      3207.50    1.963414  (  0.424658  -0.719845   1.124679)
 212:      3208.23    1.462586  (  1.060209   0.363936  -0.453974)
 213:      3209.89    0.335720  (  0.267731   0.099849  -0.504054)
 214:      3213.62    6.588647  (  1.822038   0.356553  -1.772483)
 215:      3215.64    7.172859  (  0.874467  -0.612607  -2.456192)
 216:      3217.77    5.055455  ( -0.287360  -1.755424  -1.375269)
 217:      3217.90    4.916728  ( -0.248516   0.126803   2.199747)
 218:      3218.61   15.735821  (  1.979725  -2.894720   1.853943)
 219:      3218.97   11.294385  ( -0.997007   3.205177  -0.164932)
 220:      3222.53    3.630367  (  1.683474  -0.809282   0.375957)
 221:      3226.94   17.613141  (  0.536437  -0.045039   4.162133)
 222:      3227.46   11.834118  (  2.629827  -0.973135  -1.992771)
 223:      3227.69   17.135918  (  1.439497   2.724989   2.763730)
 224:      3228.37   10.367796  (  1.847910  -2.432534   1.017743)
 225:      3229.67    9.350541  ( -2.621167  -0.124199   1.569905)
 226:      3231.22   11.060390  ( -3.215918  -0.422176   0.734865)
 227:      3236.82    5.130214  ( -1.289155  -0.558457  -1.776631)

The first frequency considered to be a vibration is 6
The total number of vibrations considered is 222


--------------------------
THERMOCHEMISTRY AT 298.15K
--------------------------

Temperature         ... 298.15 K
Pressure            ... 1.00 atm
Total Mass          ... 682.55 AMU

Throughout the following assumptions are being made:
  (1) The electronic state is orbitally nondegenerate
  (2) There are no thermally accessible electronically excited states
  (3) Hindered rotations indicated by low frequency modes are not
      treated as such but are treated as vibrations and this may
      cause some error
  (4) All equations used are the standard statistical mechanics
      equations for an ideal gas
  (5) All vibrations are strictly harmonic

freq.      14.91  E(vib)   ...       0.57 
freq.      21.85  E(vib)   ...       0.56 
freq.      26.75  E(vib)   ...       0.56 
freq.      30.73  E(vib)   ...       0.55 
freq.      35.29  E(vib)   ...       0.54 
freq.      43.41  E(vib)   ...       0.53 
freq.      47.47  E(vib)   ...       0.53 
freq.      52.32  E(vib)   ...       0.52 
freq.      53.70  E(vib)   ...       0.52 
freq.      60.33  E(vib)   ...       0.51 
freq.      63.20  E(vib)   ...       0.51 
freq.      71.85  E(vib)   ...       0.50 
freq.      79.05  E(vib)   ...       0.49 
freq.      83.57  E(vib)   ...       0.48 
freq.      88.69  E(vib)   ...       0.47 
freq.      99.45  E(vib)   ...       0.46 
freq.     107.05  E(vib)   ...       0.45 
freq.     111.58  E(vib)   ...       0.45 
freq.     116.24  E(vib)   ...       0.44 
freq.     126.27  E(vib)   ...       0.43 
freq.     137.61  E(vib)   ...       0.42 
freq.     144.04  E(vib)   ...       0.41 
freq.     178.13  E(vib)   ...       0.37 
freq.     187.70  E(vib)   ...       0.36 
freq.     200.12  E(vib)   ...       0.35 
freq.     211.21  E(vib)   ...       0.34 
freq.     229.66  E(vib)   ...       0.32 
freq.     234.00  E(vib)   ...       0.32 
freq.     237.43  E(vib)   ...       0.32 
freq.     245.73  E(vib)   ...       0.31 
freq.     257.29  E(vib)   ...       0.30 
freq.     265.52  E(vib)   ...       0.29 
freq.     277.08  E(vib)   ...       0.28 
freq.     310.51  E(vib)   ...       0.26 
freq.     320.81  E(vib)   ...       0.25 
freq.     336.74  E(vib)   ...       0.24 
freq.     352.99  E(vib)   ...       0.22 
freq.     377.28  E(vib)   ...       0.21 
freq.     407.42  E(vib)   ...       0.19 
freq.     413.28  E(vib)   ...       0.19 
freq.     413.67  E(vib)   ...       0.19 
freq.     416.50  E(vib)   ...       0.18 
freq.     419.38  E(vib)   ...       0.18 
freq.     426.58  E(vib)   ...       0.18 
freq.     428.82  E(vib)   ...       0.18 
freq.     439.77  E(vib)   ...       0.17 
freq.     443.02  E(vib)   ...       0.17 
freq.     461.39  E(vib)   ...       0.16 
freq.     471.16  E(vib)   ...       0.15 
freq.     480.29  E(vib)   ...       0.15 
freq.     484.22  E(vib)   ...       0.15 
freq.     497.38  E(vib)   ...       0.14 
freq.     504.14  E(vib)   ...       0.14 
freq.     518.60  E(vib)   ...       0.13 
freq.     521.03  E(vib)   ...       0.13 
freq.     532.20  E(vib)   ...       0.13 
freq.     536.87  E(vib)   ...       0.12 
freq.     561.64  E(vib)   ...       0.11 
freq.     567.00  E(vib)   ...       0.11 
freq.     593.31  E(vib)   ...       0.10 
freq.     603.90  E(vib)   ...       0.10 
freq.     628.06  E(vib)   ...       0.09 
freq.     629.59  E(vib)   ...       0.09 
freq.     630.26  E(vib)   ...       0.09 
freq.     630.70  E(vib)   ...       0.09 
freq.     635.31  E(vib)   ...       0.09 
freq.     686.32  E(vib)   ...       0.07 
freq.     705.69  E(vib)   ...       0.07 
freq.     710.43  E(vib)   ...       0.07 
freq.     714.73  E(vib)   ...       0.07 
freq.     716.47  E(vib)   ...       0.07 
freq.     719.60  E(vib)   ...       0.07 
freq.     721.42  E(vib)   ...       0.07 
freq.     722.11  E(vib)   ...       0.07 
freq.     724.14  E(vib)   ...       0.06 
freq.     726.28  E(vib)   ...       0.06 
freq.     731.97  E(vib)   ...       0.06 
freq.     756.79  E(vib)   ...       0.06 
freq.     761.10  E(vib)   ...       0.06 
freq.     768.58  E(vib)   ...       0.06 
freq.     771.95  E(vib)   ...       0.05 
freq.     773.43  E(vib)   ...       0.05 
freq.     775.89  E(vib)   ...       0.05 
freq.     785.34  E(vib)   ...       0.05 
freq.     788.75  E(vib)   ...       0.05 
freq.     803.76  E(vib)   ...       0.05 
freq.     836.35  E(vib)   ...       0.04 
freq.     840.28  E(vib)   ...       0.04 
freq.     843.57  E(vib)   ...       0.04 
freq.     858.78  E(vib)   ...       0.04 
freq.     863.80  E(vib)   ...       0.04 
freq.     868.21  E(vib)   ...       0.04 
freq.     869.54  E(vib)   ...       0.04 
freq.     874.17  E(vib)   ...       0.04 
freq.     899.54  E(vib)   ...       0.03 
freq.     907.22  E(vib)   ...       0.03 
freq.     943.12  E(vib)   ...       0.03 
freq.     949.19  E(vib)   ...       0.03 
freq.     953.22  E(vib)   ...       0.03 
freq.     956.51  E(vib)   ...       0.03 
freq.     980.34  E(vib)   ...       0.02 
freq.     984.30  E(vib)   ...       0.02 
freq.    1003.56  E(vib)   ...       0.02 
freq.    1006.10  E(vib)   ...       0.02 
freq.    1009.36  E(vib)   ...       0.02 
freq.    1012.20  E(vib)   ...       0.02 
freq.    1016.40  E(vib)   ...       0.02 
freq.    1017.63  E(vib)   ...       0.02 
freq.    1018.08  E(vib)   ...       0.02 
freq.    1018.25  E(vib)   ...       0.02 
freq.    1019.38  E(vib)   ...       0.02 
freq.    1020.21  E(vib)   ...       0.02 
freq.    1025.08  E(vib)   ...       0.02 
freq.    1027.28  E(vib)   ...       0.02 
freq.    1028.24  E(vib)   ...       0.02 
freq.    1032.51  E(vib)   ...       0.02 
freq.    1034.23  E(vib)   ...       0.02 
freq.    1059.36  E(vib)   ...       0.02 
freq.    1059.60  E(vib)   ...       0.02 
freq.    1060.89  E(vib)   ...       0.02 
freq.    1063.01  E(vib)   ...       0.02 
freq.    1078.42  E(vib)   ...       0.02 
freq.    1082.35  E(vib)   ...       0.02 
freq.    1099.15  E(vib)   ...       0.02 
freq.    1102.01  E(vib)   ...       0.02 
freq.    1105.37  E(vib)   ...       0.02 
freq.    1109.37  E(vib)   ...       0.02 
freq.    1109.70  E(vib)   ...       0.02 
freq.    1114.41  E(vib)   ...       0.01 
freq.    1124.14  E(vib)   ...       0.01 
freq.    1126.94  E(vib)   ...       0.01 
freq.    1131.32  E(vib)   ...       0.01 
freq.    1136.58  E(vib)   ...       0.01 
freq.    1157.05  E(vib)   ...       0.01 
freq.    1162.46  E(vib)   ...       0.01 
freq.    1169.71  E(vib)   ...       0.01 
freq.    1170.21  E(vib)   ...       0.01 
freq.    1170.74  E(vib)   ...       0.01 
freq.    1171.44  E(vib)   ...       0.01 
freq.    1173.13  E(vib)   ...       0.01 
freq.    1174.07  E(vib)   ...       0.01 
freq.    1190.39  E(vib)   ...       0.01 
freq.    1193.92  E(vib)   ...       0.01 
freq.    1194.63  E(vib)   ...       0.01 
freq.    1200.06  E(vib)   ...       0.01 
freq.    1201.02  E(vib)   ...       0.01 
freq.    1209.55  E(vib)   ...       0.01 
freq.    1248.52  E(vib)   ...       0.01 
freq.    1251.99  E(vib)   ...       0.01 
freq.    1294.87  E(vib)   ...       0.01 
freq.    1303.44  E(vib)   ...       0.01 
freq.    1318.19  E(vib)   ...       0.01 
freq.    1318.40  E(vib)   ...       0.01 
freq.    1319.54  E(vib)   ...       0.01 
freq.    1323.25  E(vib)   ...       0.01 
freq.    1324.14  E(vib)   ...       0.01 
freq.    1382.12  E(vib)   ...       0.01 
freq.    1386.72  E(vib)   ...       0.00 
freq.    1389.45  E(vib)   ...       0.00 
freq.    1390.38  E(vib)   ...       0.00 
freq.    1392.20  E(vib)   ...       0.00 
freq.    1394.49  E(vib)   ...       0.00 
freq.    1428.90  E(vib)   ...       0.00 
freq.    1432.09  E(vib)   ...       0.00 
freq.    1472.15  E(vib)   ...       0.00 
freq.    1473.70  E(vib)   ...       0.00 
freq.    1474.99  E(vib)   ...       0.00 
freq.    1475.50  E(vib)   ...       0.00 
freq.    1476.37  E(vib)   ...       0.00 
freq.    1496.05  E(vib)   ...       0.00 
freq.    1517.11  E(vib)   ...       0.00 
freq.    1518.36  E(vib)   ...       0.00 
freq.    1519.71  E(vib)   ...       0.00 
freq.    1520.85  E(vib)   ...       0.00 
freq.    1522.49  E(vib)   ...       0.00 
freq.    1553.77  E(vib)   ...       0.00 
freq.    1649.66  E(vib)   ...       0.00 
freq.    1654.81  E(vib)   ...       0.00 
freq.    1656.74  E(vib)   ...       0.00 
freq.    1657.49  E(vib)   ...       0.00 
freq.    1658.66  E(vib)   ...       0.00 
freq.    1658.84  E(vib)   ...       0.00 
freq.    1673.39  E(vib)   ...       0.00 
freq.    1674.63  E(vib)   ...       0.00 
freq.    1674.94  E(vib)   ...       0.00 
freq.    1675.92  E(vib)   ...       0.00 
freq.    1683.65  E(vib)   ...       0.00 
freq.    1690.25  E(vib)   ...       0.00 
freq.    2016.27  E(vib)   ...       0.00 
freq.    2113.06  E(vib)   ...       0.00 
freq.    3088.91  E(vib)   ...       0.00 
freq.    3098.90  E(vib)   ...       0.00 
freq.    3168.04  E(vib)   ...       0.00 
freq.    3169.03  E(vib)   ...       0.00 
freq.    3188.71  E(vib)   ...       0.00 
freq.    3191.08  E(vib)   ...       0.00 
freq.    3197.68  E(vib)   ...       0.00 
freq.    3197.98  E(vib)   ...       0.00 
freq.    3198.28  E(vib)   ...       0.00 
freq.    3198.41  E(vib)   ...       0.00 
freq.    3199.46  E(vib)   ...       0.00 
freq.    3200.57  E(vib)   ...       0.00 
freq.    3202.79  E(vib)   ...       0.00 
freq.    3203.50  E(vib)   ...       0.00 
freq.    3203.67  E(vib)   ...       0.00 
freq.    3207.50  E(vib)   ...       0.00 
freq.    3208.23  E(vib)   ...       0.00 
freq.    3209.89  E(vib)   ...       0.00 
freq.    3213.62  E(vib)   ...       0.00 
freq.    3215.64  E(vib)   ...       0.00 
freq.    3217.77  E(vib)   ...       0.00 
freq.    3217.90  E(vib)   ...       0.00 
freq.    3218.61  E(vib)   ...       0.00 
freq.    3218.97  E(vib)   ...       0.00 
freq.    3222.53  E(vib)   ...       0.00 
freq.    3226.94  E(vib)   ...       0.00 
freq.    3227.46  E(vib)   ...       0.00 
freq.    3227.69  E(vib)   ...       0.00 
freq.    3228.37  E(vib)   ...       0.00 
freq.    3229.67  E(vib)   ...       0.00 
freq.    3231.22  E(vib)   ...       0.00 
freq.    3236.82  E(vib)   ...       0.00 

------------
INNER ENERGY
------------

The inner energy is: U= E(el) + E(ZPE) + E(vib) + E(rot) + E(trans)
    E(el)   - is the total energy from the electronic structure calculation
              = E(kin-el) + E(nuc-el) + E(el-el) + E(nuc-nuc)
    E(ZPE)  - the the zero temperature vibrational energy from the frequency calculation
    E(vib)  - the the finite temperature correction to E(ZPE) due to population
              of excited vibrational states
    E(rot)  - is the rotational thermal energy
    E(trans)- is the translational thermal energy

Summary of contributions to the inner energy U:
Electronic energy                ...  -2371.30286603 Eh
Zero point energy                ...      0.60676571 Eh     380.75 kcal/mol
Thermal vibrational correction   ...      0.03539663 Eh      22.21 kcal/mol
Thermal rotational correction    ...      0.00141627 Eh       0.89 kcal/mol
Thermal translational correction ...      0.00141627 Eh       0.89 kcal/mol
-----------------------------------------------------------------------
Total thermal energy                  -2370.65787114 Eh


Summary of corrections to the electronic energy:
(perhaps to be used in another calculation)
Total thermal correction                  0.03822917 Eh      23.99 kcal/mol
Non-thermal (ZPE) correction              0.60676571 Eh     380.75 kcal/mol
-----------------------------------------------------------------------
Total correction                          0.64499488 Eh     404.74 kcal/mol


--------
ENTHALPY
--------

The enthalpy is H = U + kB*T
                kB is Boltzmann's constant
Total free energy                 ...  -2370.65787114 Eh 
Thermal Enthalpy correction       ...      0.00094421 Eh       0.59 kcal/mol
-----------------------------------------------------------------------
Total Enthalpy                    ...  -2370.65692693 Eh


Note: Only C1 symmetry has been detected, increase convergence thresholds 
      if your molecule has a higher symmetry. Symmetry factor of 1.0 is   
      used for the rotational entropy correction. 
 

Note: Rotational entropy computed according to Herzberg 
Infrared and Raman Spectra, Chapter V,1, Van Nostrand Reinhold, 1945 
Point Group:  C1, Symmetry Number:   1  
Rotational constants in cm-1:     0.002962     0.002325     0.002130 

Vibrational entropy computed according to the QRRHO of S. Grimme
Chem.Eur.J. 2012 18 9955


-------
ENTROPY
-------

The entropy contributions are T*S = T*(S(el)+S(vib)+S(rot)+S(trans))
     S(el)   - electronic entropy
     S(vib)  - vibrational entropy
     S(rot)  - rotational entropy
     S(trans)- translational entropy
The entropies will be listed as mutliplied by the temperature to get
units of energy

Electronic entropy                ...      0.00000000 Eh      0.00 kcal/mol
Vibrational entropy               ...      0.06330282 Eh     39.72 kcal/mol
Rotational entropy                ...      0.01802627 Eh     11.31 kcal/mol
Translational entropy             ...      0.02159143 Eh     13.55 kcal/mol
-----------------------------------------------------------------------
Final entropy term                ...      0.10292052 Eh     64.58 kcal/mol

In case the symmetry of your molecule has not been determined correctly
or in case you have a reason to use a different symmetry number we print 
out the resulting rotational entropy values for sn=1,12 :
 --------------------------------------------------------
|  sn= 1 | S(rot)=       0.01802627 Eh     11.31 kcal/mol|
|  sn= 2 | S(rot)=       0.01737182 Eh     10.90 kcal/mol|
|  sn= 3 | S(rot)=       0.01698898 Eh     10.66 kcal/mol|
|  sn= 4 | S(rot)=       0.01671736 Eh     10.49 kcal/mol|
|  sn= 5 | S(rot)=       0.01650667 Eh     10.36 kcal/mol|
|  sn= 6 | S(rot)=       0.01633453 Eh     10.25 kcal/mol|
|  sn= 7 | S(rot)=       0.01618898 Eh     10.16 kcal/mol|
|  sn= 8 | S(rot)=       0.01606290 Eh     10.08 kcal/mol|
|  sn= 9 | S(rot)=       0.01595170 Eh     10.01 kcal/mol|
|  sn=10 | S(rot)=       0.01585222 Eh      9.95 kcal/mol|
|  sn=11 | S(rot)=       0.01576223 Eh      9.89 kcal/mol|
|  sn=12 | S(rot)=       0.01568007 Eh      9.84 kcal/mol|
 --------------------------------------------------------


-------------------
GIBBS FREE ENERGY
-------------------

The Gibbs free energy is G = H - T*S

Total enthalpy                    ...  -2370.65692693 Eh 
Total entropy correction          ...     -0.10292052 Eh    -64.58 kcal/mol
-----------------------------------------------------------------------
Final Gibbs free energy         ...  -2370.75984746 Eh

For completeness - the Gibbs free energy minus the electronic energy
G-E(el)                           ...      0.54301857 Eh    340.75 kcal/mol

--------------------------------------------------------------------------
[[36656,1],0]: A high-performance Open MPI point-to-point messaging module
was unable to find any relevant network interfaces:

Module: OpenFabrics (openib)
  Host: eu-g5-037-3

Another transport will be used instead, although this may result in
lower performance.

NOTE: You can disable this warning by setting the MCA parameter
btl_base_warn_component_unused to 0.
--------------------------------------------------------------------------

Timings for individual modules:

Sum of individual times         ...    31965.788 sec (= 532.763 min)
GTO integral calculation        ...      697.497 sec (=  11.625 min)   2.2 %
SCF iterations                  ...     5183.756 sec (=  86.396 min)  16.2 %
SCF Gradient evaluation         ...     1629.899 sec (=  27.165 min)   5.1 %
Geometry relaxation             ...       27.085 sec (=   0.451 min)   0.1 %
Analytical frequency calculation...    24427.551 sec (= 407.126 min)  76.4 %
                             ****ORCA TERMINATED NORMALLY****
TOTAL RUN TIME: 0 days 8 hours 53 minutes 22 seconds 91 msec
