80
 energy: -96.128099654847 gnorm: 0.000497168291 xtb: 6.2.2 (655bc02); SMILES:[H][Rh]1([P](C2CCCCC2)(C3CCCCC3)CC[P](C4CCCCC4)1C5CCCCC5)C#O
H           0.83396157346898    1.35689166060599   -1.29278251952420
Rh          1.50452894887097    0.17589705668486   -0.57634903105414
P           2.71055805061039    1.58738515599950    0.72341324787305
C           3.85013492148080    2.94491082997390    0.08758316116106
C           5.31856314968972    2.56197541666217   -0.10828752009789
C           5.49392536703093    1.55792350996627   -1.24080363209061
C           4.99746971567110    2.16788241571625   -2.54405638648923
C           3.52733947481254    2.52791065120220   -2.39049832423354
C           3.29984251848695    3.49510900644579   -1.23282067445372
C           1.69525749517710    2.32023367084468    2.13769585213274
C           2.11465246506193    3.64952177634799    2.76996384808028
C           1.63783520738763    4.87801691331966    1.99866448904424
C           0.13271962078697    4.81941077246992    1.77095154754369
C          -0.21308098283209    3.55320011343086    0.99897440995920
C           0.20405533383892    2.31742337714102    1.78247629702609
C           3.89492767648867    0.58613363874578    1.76941953173950
C           3.23106673767478   -0.72141206835010    2.17718776293775
P           2.39875916083278   -1.48812010709554    0.69046218302760
C           1.41529759375257   -2.87464991030499    1.50685025588394
C           0.92867738204859   -2.61941070469066    2.93492094357525
C          -0.13585465916104   -1.53043001411944    2.98671532402423
C          -1.33858222160719   -1.95135509351887    2.15354533954885
C          -0.88948851871072   -2.17011884836065    0.71600025263817
C           0.20949115143771   -3.22539445788456    0.62772617170520
C           3.93679676218329   -2.28546279287847   -0.06771674121417
C           4.36302152830737   -3.69317774944993    0.35756296974679
C           3.64304624658831   -4.81459099518010   -0.38880843320641
C           3.75531115746259   -4.62111303939323   -1.89576212899401
C           3.15795581585283   -3.27272249220582   -2.27546156941712
C           3.92000532655791   -2.14614856754389   -1.59365178013777
C           0.65041620459124   -0.84406094814568   -1.83752185823283
O           0.16677959644806   -1.44776347301123   -2.69316260537010
H           3.82615850483655    3.73854626136145    0.84137688675055
H           5.75526430833754    2.18992508200517    0.82033480318322
H           5.86431433028147    3.47561732680057   -0.36714208100505
H           4.90013138594934    0.66264119433226   -1.03274311890348
H           6.54360661720564    1.26568131482140   -1.32506352669958
H           5.12271096660742    1.45900559038333   -3.36492252025987
H           5.58204756927102    3.06158022113306   -2.77891511767141
H           2.95702393464079    1.60557473448196   -2.19489592730487
H           3.14386685006363    2.96945121967411   -3.31213017284736
H           2.22710837017350    3.68000031240303   -1.13668701179579
H           3.78725598338565    4.45042374890069   -1.45266843564424
H           1.82877644206646    1.54986717754428    2.91248712042123
H           3.20059015699652    3.68075737420691    2.90103560967745
H           1.67304147812082    3.68921948922120    3.77126586646793
H           2.12980358210653    4.93595616723559    1.02728673560280
H           1.90149168810677    5.77705437734108    2.56186161049501
H          -0.19280519285402    5.70129323165212    1.21557200030532
H          -0.38750577128620    4.81739437482080    2.73233466821582
H           0.30709462299371    3.55383501504387    0.03880211934451
H          -1.28527310610781    3.51191294755911    0.79824826277244
H          -0.01430954021419    1.42181887698273    1.17730009319368
H          -0.38385470829843    2.26191100357492    2.70403897009182
H           4.21615419871590    1.15902234988008    2.64607443676538
H           4.77577921743770    0.36382178207836    1.16663472307435
H           2.46372698510459   -0.51334889500846    2.92374187503095
H           3.95627372306314   -1.41643286735182    2.61488017255108
H           2.08562371102291   -3.73858190419189    1.54946514180406
H           1.76372591404618   -2.38473974570867    3.59731808178949
H           0.48840525375017   -3.55209708653942    3.30371919235994
H           0.26591084111233   -0.60286599341830    2.56811980250685
H          -0.43048213330359   -1.34284344737532    4.02216460414111
H          -2.11044141146806   -1.18012140425582    2.18803848059881
H          -1.76443274714508   -2.87293908512676    2.55935879950172
H          -0.50395119172135   -1.21434875356115    0.32539934684612
H          -1.73326766004943   -2.47042173089770    0.09180455929355
H           0.52607456431724   -3.32502457346734   -0.41399498876738
H          -0.19339919034197   -4.19283108787460    0.94492549460212
H           4.71843117223526   -1.59991610564163    0.29340661842771
H           4.23830019497587   -3.81630113168273    1.43763427159797
H           5.43398304590623   -3.78675158070781    0.14938370016431
H           2.58509527650512   -4.83644911374565   -0.12446979186231
H           4.07965492830442   -5.77313946300936   -0.09653706546297
H           3.23064552046861   -5.42668856404742   -2.41312367547894
H           4.80521917393509   -4.65552178837966   -2.19746344814481
H           2.11177253251558   -3.24021227196356   -1.96414729492722
H           3.18859268985859   -3.13288211597726   -3.35757954933442
H           3.45905917113629   -1.18099380898150   -1.85810611470709
H           4.95017794750304   -2.14163335902090   -1.96323458941807
