
                                 *****************
                                 * O   R   C   A *
                                 *****************

           --- An Ab Initio, DFT and Semiempirical electronic structure package ---

                  #######################################################
                  #                        -***-                        #
                  #          Department of theory and spectroscopy      #
                  #               Directorship: Frank Neese             #
                  #        Max Planck Institute fuer Kohlenforschung    #
                  #                Kaiser Wilhelm Platz 1               #
                  #                 D-45470 Muelheim/Ruhr               #
                  #                      Germany                        #
                  #                                                     #
                  #                  All rights reserved                #
                  #                        -***-                        #
                  #######################################################


                         Program Version 4.2.0 -  RELEASE  -


 With contributions from (in alphabetic order):
   Daniel Aravena         : Magnetic Suceptibility
   Michael Atanasov       : Ab Initio Ligand Field Theory (pilot matlab implementation)
   Alexander A. Auer      : GIAO ZORA, VPT2
   Ute Becker             : Parallelization
   Giovanni Bistoni       : ED, misc. LED, open-shell LED, HFLED
   Martin Brehm           : Molecular dynamics
   Dmytro Bykov           : SCF Hessian
   Vijay G. Chilkuri      : MRCI spin determinant printing, contributions to CSF-ICE
   Dipayan Datta          : RHF DLPNO-CCSD density
   Achintya Kumar Dutta   : EOM-CC, STEOM-CC
   Dmitry Ganyushin       : Spin-Orbit,Spin-Spin,Magnetic field MRCI
   Miquel Garcia          : C-PCM Hessian, Gaussian charge scheme
   Yang Guo               : DLPNO-NEVPT2, CIM, IAO-localization
   Andreas Hansen         : Spin unrestricted coupled pair/coupled cluster methods
   Benjamin Helmich-Paris : CASSCF linear response (MC-RPA)
   Lee Huntington         : MR-EOM, pCC
   Robert Izsak           : Overlap fitted RIJCOSX, COSX-SCS-MP3, EOM
   Christian Kollmar      : KDIIS, OOCD, Brueckner-CCSD(T), CCSD density
   Simone Kossmann        : Meta GGA functionals, TD-DFT gradient, OOMP2, MP2 Hessian
   Martin Krupicka        : AUTO-CI
   Lucas Lang             : DCDCAS
   Dagmar Lenk            : GEPOL surface, SMD
   Dimitrios Liakos       : Extrapolation schemes; Compound Job, initial MDCI parallelization
   Dimitrios Manganas     : Further ROCIS development; embedding schemes
   Dimitrios Pantazis     : SARC Basis sets
   Taras Petrenko         : DFT Hessian,TD-DFT gradient, ASA, ECA, R-Raman, ABS, FL, XAS/XES, NRVS
   Peter Pinski           : DLPNO-MP2, DLPNO-MP2 Gradient
   Christoph Reimann      : Effective Core Potentials
   Marius Retegan         : Local ZFS, SOC
   Christoph Riplinger    : Optimizer, TS searches, QM/MM, DLPNO-CCSD(T), (RO)-DLPNO pert. Triples
   Tobias Risthaus        : Range-separated hybrids, TD-DFT gradient, RPA, STAB
   Michael Roemelt        : Original ROCIS implementation
   Masaaki Saitow         : Open-shell DLPNO-CCSD energy and density
   Barbara Sandhoefer     : DKH picture change effects
   Avijit Sen             : IP-ROCIS
   Kantharuban Sivalingam : CASSCF convergence, NEVPT2, FIC-MRCI
   Bernardo de Souza      : ESD, SOC TD-DFT
   Georgi Stoychev        : AutoAux, RI-MP2 NMR
   Willem Van den Heuvel  : Paramagnetic NMR
   Boris Wezisla          : Elementary symmetry handling
   Frank Wennmohs         : Technical directorship


 We gratefully acknowledge several colleagues who have allowed us to
 interface, adapt or use parts of their codes:
   Stefan Grimme, W. Hujo, H. Kruse,             : VdW corrections, initial TS optimization,
                  C. Bannwarth                     DFT functionals, gCP, sTDA/sTD-DF
   Ed Valeev, F. Pavosevic, A. Kumar             : LibInt (2-el integral package), F12 methods
   Garnet Chan, S. Sharma, J. Yang, R. Olivares  : DMRG
   Ulf Ekstrom                                   : XCFun DFT Library
   Mihaly Kallay                                 : mrcc  (arbitrary order and MRCC methods)
   Andreas Klamt, Michael Diedenhofen            : otool_cosmo (COSMO solvation model)
   Jiri Pittner, Ondrej Demel                    : Mk-CCSD
   Frank Weinhold                                : gennbo (NPA and NBO analysis)
   Christopher J. Cramer and Donald G. Truhlar   : smd solvation model
   Lars Goerigk                                  : TD-DFT with DH, B97 family of functionals
   V. Asgeirsson, H. Jonsson                     : NEB implementation
   FAccTs GmbH                                   : IRC, NEB, NEB-TS, Multilevel, MM, QM/MM, CI optimization
   S Lehtola, MJT Oliveira, MAL Marques          : LibXC Library


 Your calculation uses the libint2 library for the computation of 2-el integrals
 For citations please refer to: http://libint.valeyev.net

 Your ORCA version has been built with support for libXC version: 4.2.3
 For citations please refer to: https://tddft.org/programs/libxc/

 This ORCA versions uses:
   CBLAS   interface :  Fast vector & matrix operations
   LAPACKE interface :  Fast linear algebra routines
   SCALAPACK package :  Parallel linear algebra routines




***************************************
The coordinates will be read from file: xtbopt.xyz
***************************************


Your calculation utilizes the atom-pairwise dispersion correction
with the Becke-Johnson damping scheme (D3BJ)
Cite in your paper:
S.Grimme, S.Ehrlich, L.Goerigk, J Comput Chem, (2011), 32, 1456–1465 
S.Grimme, J.Antony, S.Ehrlich and H.Krieg, J.Chem.Phys., 132, (2010), 154104 
   

----- Orbital basis set information -----
Your calculation utilizes the basis: def2-SVP
   F. Weigend and R. Ahlrichs, Phys. Chem. Chem. Phys. 7, 3297 (2005).

----- AuxJ basis set information -----
Your calculation utilizes the auxiliary basis: def2/J
   F. Weigend, Phys. Chem. Chem. Phys. 8, 1057 (2006).

cite the ECPs for Rh [Def2-ECP] as follows:
Ce-Yb(ecp-28): M. Dolg, H. Stoll, H.Preuss, J. Chem. Phys., 1989, 90, 1730-1734.
Y-Cd(ecp-28), Hf-Hg(ecp-46): D. Andrae,U. Haeussermann, M. Dolg, H. Stoll, H. Preuss, Theor. Chim. Acta, 1990, 77, 123-141.
In-Sb(ecp-28), Tl-Bi(ecp-46): B. Metz, H. Stoll, M. Dolg, J. Chem. Phys., 2000, 113, 2563-2569.
Te-Xe(ecp-28), Po-Rn(ecp-46): K. A. Peterson, D. Figgen, E. Goll, H. Stoll, M. Dolg, J. Chem. Phys., 2003, 119, 11113-11123.
Rb(ecp-28), Cs(ecp-46): T. Leininger, A. Nicklass, W. Kuechle, H. Stoll, M. Dolg, A. Bergner, Chem. Phys. Lett., 1996, 255, 274-280.
Sr(ecp-28), Ba(ecp-46): M. Kaupp, P. V. Schleyer, H. Stoll and H. Preuss, J. Chem. Phys., 1991, 94, 1360-1366.
La(ecp-46): M. Dolg, H. Stoll, A. Savin, H. Preuss, Theor. Chim. Acta, 1989, 75, 173-194.
Lu(ecp-28): X. Cao, M. Dolg, J. Chem. Phys., 2001, 115, 7348-7355.

ECP parameters for Rh [Def2-ECP] have been obtained from:
TURBOMOLE (7.0.2)

================================================================================
                                        WARNINGS
                       Please study these warnings very carefully!
================================================================================


WARNING: Split-RI-J cannot be used together with RIJONX
  ===> : Split-RI-J will be disabled

WARNING: Geometry Optimization
  ===> : Switching off AutoStart
         For restart on a previous wavefunction, please use MOREAD

INFO   : the flag for use of LIBINT has been found!

================================================================================
                                       INPUT FILE
================================================================================
NAME = TEP_Rh.inp
|  1> ! PBE0 def2-SVP RIJDX D3BJ opt freq
|  2> %pal nprocs 10 end
|  3> %maxcore 3036
|  4> 
|  5> %basis
|  6>   newgto Rh "def2-TZVP" end
|  7> end
|  8> 
|  9> *xyzfile 0 1 xtbopt.xyz
| 10> 
| 11>                          ****END OF INPUT****
================================================================================

                       *****************************
                       * Geometry Optimization Run *
                       *****************************

Geometry optimization settings:
Update method            Update   .... BFGS
Choice of coordinates    CoordSys .... Z-matrix Internals
Initial Hessian          InHess   .... Almoef's Model

Convergence Tolerances:
Energy Change            TolE     ....  5.0000e-06 Eh
Max. Gradient            TolMAXG  ....  3.0000e-04 Eh/bohr
RMS Gradient             TolRMSG  ....  1.0000e-04 Eh/bohr
Max. Displacement        TolMAXD  ....  4.0000e-03 bohr
RMS Displacement         TolRMSD  ....  2.0000e-03 bohr
Strict Convergence                ....  False
------------------------------------------------------------------------------
                        ORCA OPTIMIZATION COORDINATE SETUP
------------------------------------------------------------------------------

The optimization will be done in new redundant internal coordinates
Making redundant internal coordinates   ...  (new redundants) done
Evaluating the initial hessian          ...  (Almloef) done
Evaluating the coordinates              ...  done
Calculating the B-matrix                .... done
Calculating the G-matrix                .... done
Diagonalizing the G-matrix              .... done
Small eigenvalue found = 3.757e-03
Small eigenvalue found = 9.426e-03
Small eigenvalue found = 1.096e-02
Small eigenvalue found = 1.312e-02
Small eigenvalue found = 1.535e-02
Small eigenvalue found = 1.602e-02
Small eigenvalue found = 1.719e-02
Small eigenvalue found = 1.863e-02
Small eigenvalue found = 2.773e-02
The first mode is                       ....  325
The number of degrees of freedom        ....  234

    -----------------------------------------------------------------
                    Redundant Internal Coordinates


    -----------------------------------------------------------------
         Definition                    Initial Value    Approx d2E/dq
    -----------------------------------------------------------------
      1. B(Rh  1,H   0)                  1.5352         0.710069   
      2. B(P   2,Rh  1)                  2.2663         0.849671   
      3. B(C   3,P   2)                  1.8830         0.343348   
      4. B(C   4,C   3)                  1.5302         0.373296   
      5. B(C   5,C   4)                  1.5237         0.382284   
      6. B(C   6,C   5)                  1.5222         0.384489   
      7. B(C   7,C   6)                  1.5214         0.385501   
      8. B(C   8,C   3)                  1.5326         0.370010   
      9. B(C   8,C   7)                  1.5255         0.379864   
     10. B(C   9,P   2)                  1.8892         0.335524   
     11. B(C  10,C   9)                  1.5306         0.372769   
     12. B(C  11,C  10)                  1.5269         0.377814   
     13. B(C  12,C  11)                  1.5234         0.382730   
     14. B(C  13,C  12)                  1.5227         0.383753   
     15. B(C  14,C   9)                  1.5330         0.369484   
     16. B(C  14,C  13)                  1.5215         0.385374   
     17. B(C  15,P   2)                  1.8707         0.359112   
     18. B(C  16,C  15)                  1.5221         0.384569   
     19. B(P  17,Rh  1)                  2.2745         0.824467   
     20. B(P  17,C  16)                  1.8684         0.362237   
     21. B(C  18,P  17)                  1.8857         0.339975   
     22. B(C  19,C  18)                  1.5302         0.373323   
     23. B(C  20,C  19)                  1.5238         0.382204   
     24. B(C  21,C  20)                  1.5225         0.384034   
     25. B(C  22,C  21)                  1.5219         0.384826   
     26. B(C  23,C  22)                  1.5260         0.379066   
     27. B(C  23,C  18)                  1.5329         0.369655   
     28. B(C  24,P  17)                  1.8913         0.332991   
     29. B(C  25,C  24)                  1.5309         0.372282   
     30. B(C  26,C  25)                  1.5274         0.377213   
     31. B(C  27,C  26)                  1.5235         0.382579   
     32. B(C  28,C  27)                  1.5229         0.383405   
     33. B(C  29,C  28)                  1.5215         0.385387   
     34. B(C  29,C  24)                  1.5325         0.370099   
     35. B(C  30,Rh  1)                  1.8328         1.242604   
     36. B(O  31,C  30)                  1.1533         1.334961   
     37. B(H  32,C   3)                  1.0948         0.353812   
     38. B(H  33,C   4)                  1.0916         0.358055   
     39. B(H  34,C   4)                  1.0953         0.353192   
     40. B(H  35,C   5)                  1.0940         0.354887   
     41. B(H  36,C   5)                  1.0929         0.356255   
     42. B(H  37,C   6)                  1.0918         0.357760   
     43. B(H  38,C   6)                  1.0934         0.355576   
     44. B(H  39,C   7)                  1.1018         0.344880   
     45. B(H  40,C   7)                  1.0915         0.358102   
     46. B(H  41,C   8)                  1.0928         0.356461   
     47. B(H  42,C   8)                  1.0948         0.353868   
     48. B(H  43,C   9)                  1.1006         0.346351   
     49. B(H  44,C  10)                  1.0943         0.354494   
     50. B(H  45,C  10)                  1.0951         0.353422   
     51. B(H  46,C  11)                  1.0905         0.359479   
     52. B(H  47,C  11)                  1.0932         0.355946   
     53. B(H  48,C  12)                  1.0918         0.357673   
     54. B(H  49,C  12)                  1.0931         0.356006   
     55. B(H  50,C  13)                  1.0920         0.357429   
     56. B(H  51,C  13)                  1.0916         0.358016   
     57. B(H  52,C  14)                  1.1034         0.342854   
     58. B(H  53,C  14)                  1.0945         0.354175   
     59. B(H  54,C  15)                  1.0955         0.352956   
     60. B(H  55,C  15)                  1.0902         0.359844   
     61. B(H  56,C  16)                  1.0907         0.359239   
     62. B(H  57,C  16)                  1.0957         0.352644   
     63. B(H  58,C  18)                  1.0943         0.354445   
     64. B(H  59,C  19)                  1.0914         0.358245   
     65. B(H  60,C  19)                  1.0954         0.353080   
     66. B(H  61,C  20)                  1.0939         0.354955   
     67. B(H  62,C  20)                  1.0928         0.356438   
     68. B(H  63,H  51)                  4.9736         0.000000   
     69. B(H  63,C  21)                  1.0917         0.357905   
     70. B(H  64,C  21)                  1.0933         0.355753   
     71. B(H  65,C  22)                  1.1017         0.345008   
     72. B(H  66,C  22)                  1.0917         0.357913   
     73. B(H  67,C  23)                  1.0933         0.355754   
     74. B(H  68,C  23)                  1.0949         0.353643   
     75. B(H  69,C  24)                  1.1005         0.346450   
     76. B(H  70,C  25)                  1.0942         0.354595   
     77. B(H  71,C  25)                  1.0950         0.353507   
     78. B(H  72,C  26)                  1.0907         0.359215   
     79. B(H  73,C  26)                  1.0931         0.356026   
     80. B(H  74,C  27)                  1.0918         0.357772   
     81. B(H  75,C  27)                  1.0929         0.356245   
     82. B(H  76,C  28)                  1.0920         0.357416   
     83. B(H  77,H  37)                  4.9772         0.000000   
     84. B(H  77,C  28)                  1.0916         0.358005   
     85. B(H  78,C  29)                  1.1024         0.344057   
     86. B(H  79,C  29)                  1.0944         0.354263   
     87. A(P   2,Rh  1,C  30)          172.5419         0.702973   
     88. A(H   0,Rh  1,P  17)          174.7170         0.576294   
     89. A(P  17,Rh  1,C  30)           99.2606         0.698803   
     90. A(H   0,Rh  1,P   2)           91.1607         0.579627   
     91. A(P   2,Rh  1,P  17)           85.7340         0.682810   
     92. A(H   0,Rh  1,C  30)           84.2566         0.592841   
     93. A(Rh  1,P   2,C   9)          111.9831         0.517857   
     94. A(C   3,P   2,C  15)          101.0569         0.403023   
     95. A(Rh  1,P   2,C  15)          109.1170         0.524503   
     96. A(C   3,P   2,C   9)          107.3247         0.398231   
     97. A(C   9,P   2,C  15)           97.4243         0.401389   
     98. A(Rh  1,P   2,C   3)          125.7420         0.520100   
     99. A(P   2,C   3,C   8)          109.3534         0.380397   
    100. A(P   2,C   3,H  32)          106.0874         0.338486   
    101. A(P   2,C   3,C   4)          116.4143         0.380981   
    102. A(C   4,C   3,H  32)          106.8749         0.323343   
    103. A(C   4,C   3,C   8)          108.9204         0.362710   
    104. A(C   8,C   3,H  32)          108.9406         0.322874   
    105. A(C   3,C   4,C   5)          111.8719         0.364740   
    106. A(C   5,C   4,H  33)          111.1613         0.325245   
    107. A(C   3,C   4,H  33)          111.0706         0.323976   
    108. A(H  33,C   4,H  34)          106.6275         0.289698   
    109. A(C   5,C   4,H  34)          108.4344         0.324515   
    110. A(C   3,C   4,H  34)          107.4258         0.323250   
    111. A(H  35,C   5,H  36)          108.4680         0.289686   
    112. A(C   6,C   5,H  35)          108.2551         0.325077   
    113. A(C   4,C   5,C   6)          109.5926         0.366590   
    114. A(C   4,C   5,H  35)          109.6466         0.324770   
    115. A(C   6,C   5,H  36)          110.7523         0.325283   
    116. A(C   4,C   5,H  36)          110.0900         0.324976   
    117. A(C   7,C   6,H  38)          110.1362         0.325321   
    118. A(C   7,C   6,H  37)          109.9338         0.325649   
    119. A(C   5,C   6,H  38)          109.6838         0.325181   
    120. A(C   5,C   6,C   7)          108.9394         0.367117   
    121. A(H  37,C   6,H  38)          107.9207         0.289966   
    122. A(C   5,C   6,H  37)          110.2186         0.325508   
    123. A(H  39,C   7,H  40)          107.8381         0.288625   
    124. A(C   6,C   7,H  40)          110.4670         0.325700   
    125. A(C   8,C   7,H  40)          109.4192         0.324912   
    126. A(C   6,C   7,C   8)          111.6654         0.366356   
    127. A(C   8,C   7,H  39)          108.5681         0.322912   
    128. A(C   6,C   7,H  39)          108.7834         0.323693   
    129. A(H  41,C   8,H  42)          107.8906         0.289582   
    130. A(C   7,C   8,H  41)          108.6989         0.324667   
    131. A(C   3,C   8,H  42)          109.0792         0.322883   
    132. A(C   3,C   8,C   7)          111.8479         0.363793   
    133. A(C   7,C   8,H  42)          109.5445         0.324278   
    134. A(C   3,C   8,H  41)          109.6961         0.323270   
    135. A(C  10,C   9,H  43)          106.4788         0.322141   
    136. A(P   2,C   9,H  43)          101.0603         0.335993   
    137. A(C  10,C   9,C  14)          111.3021         0.362535   
    138. A(P   2,C   9,C  14)          110.3109         0.378788   
    139. A(P   2,C   9,C  10)          119.9595         0.379369   
    140. A(C  14,C   9,H  43)          106.2948         0.321674   
    141. A(C   9,C  10,C  11)          113.8473         0.363919   
    142. A(C  11,C  10,H  45)          107.8718         0.323923   
    143. A(H  44,C  10,H  45)          106.8287         0.289274   
    144. A(C   9,C  10,H  45)          107.3771         0.323209   
    145. A(C  11,C  10,H  44)          110.3430         0.324084   
    146. A(C   9,C  10,H  44)          110.2598         0.323370   
    147. A(C  12,C  11,H  47)          110.3005         0.324991   
    148. A(C  10,C  11,H  47)          109.0325         0.324302   
    149. A(C  12,C  11,H  46)          108.3439         0.325519   
    150. A(C  10,C  11,H  46)          110.5952         0.324828   
    151. A(H  46,C  11,H  47)          107.8519         0.290231   
    152. A(C  10,C  11,C  12)          110.6739         0.365564   
    153. A(C  13,C  12,H  49)          109.6579         0.325143   
    154. A(H  48,C  12,H  49)          107.8800         0.290010   
    155. A(C  11,C  12,H  49)          109.8147         0.325000   
    156. A(C  13,C  12,H  48)          110.2304         0.325393   
    157. A(C  11,C  12,H  48)          109.8441         0.325250   
    158. A(C  11,C  12,C  13)          109.3953         0.366543   
    159. A(H  50,C  13,H  51)          107.8337         0.290235   
    160. A(C  14,C  13,H  51)          109.4727         0.325670   
    161. A(C  14,C  13,H  50)          108.7973         0.325582   
    162. A(C  12,C  13,H  50)          109.6853         0.325356   
    163. A(C  12,C  13,H  51)          110.3597         0.325444   
    164. A(C  12,C  13,C  14)          110.6315         0.366975   
    165. A(H  52,C  14,H  53)          108.3564         0.287862   
    166. A(C  13,C  14,H  53)          109.1488         0.325093   
    167. A(C   9,C  14,H  53)          109.1440         0.322853   
    168. A(C  13,C  14,H  52)          108.8070         0.323363   
    169. A(C   9,C  14,H  52)          108.7301         0.321140   
    170. A(C   9,C  14,C  13)          112.5669         0.364602   
    171. A(C  16,C  15,H  55)          109.0306         0.325831   
    172. A(P   2,C  15,H  55)          108.1913         0.342000   
    173. A(C  16,C  15,H  54)          111.2347         0.324797   
    174. A(P   2,C  15,H  54)          110.6334         0.340896   
    175. A(P   2,C  15,C  16)          109.5120         0.385956   
    176. A(H  54,C  15,H  55)          108.1642         0.289894   
    177. A(C  15,C  16,H  57)          111.2627         0.324750   
    178. A(C  15,C  16,H  56)          109.0650         0.325740   
    179. A(C  15,C  16,P  17)          109.6333         0.386539   
    180. A(P  17,C  16,H  56)          107.9612         0.342400   
    181. A(H  56,C  16,H  57)          108.2364         0.289777   
    182. A(P  17,C  16,H  57)          110.5994         0.341339   
    183. A(C  16,P  17,C  18)          100.8777         0.402938   
    184. A(Rh  1,P  17,C  18)          125.6979         0.516217   
    185. A(Rh  1,P  17,C  16)          108.6790         0.522394   
    186. A(C  18,P  17,C  24)          106.7021         0.397013   
    187. A(C  16,P  17,C  24)           97.5073         0.401466   
    188. A(Rh  1,P  17,C  24)          113.0709         0.514214   
    189. A(P  17,C  18,C  19)          116.6260         0.380334   
    190. A(C  19,C  18,H  58)          106.8339         0.323442   
    191. A(P  17,C  18,H  58)          106.1150         0.338030   
    192. A(C  19,C  18,C  23)          108.8900         0.362655   
    193. A(P  17,C  18,C  23)          109.2492         0.379684   
    194. A(C  23,C  18,H  58)          108.8638         0.322918   
    195. A(C  20,C  19,H  60)          108.4188         0.324487   
    196. A(C  18,C  19,H  60)          107.4443         0.323237   
    197. A(C  20,C  19,H  59)          111.1009         0.325262   
    198. A(C  18,C  19,H  59)          111.0291         0.324008   
    199. A(H  59,C  19,H  60)          106.6398         0.289707   
    200. A(C  18,C  19,C  20)          111.9584         0.364731   
    201. A(C  19,C  20,H  62)          110.0457         0.324992   
    202. A(H  61,C  20,H  62)          108.4078         0.289718   
    203. A(C  19,C  20,C  21)          109.6240         0.366502   
    204. A(C  21,C  20,H  62)          110.6680         0.325247   
    205. A(C  21,C  20,H  61)          108.3692         0.325024   
    206. A(C  19,C  20,H  61)          109.6928         0.324769   
    207. A(H  63,C  21,H  64)          107.9585         0.290007   
    208. A(C  20,C  21,C  22)          108.8932         0.366932   
    209. A(C  22,C  21,H  64)          110.1112         0.325254   
    210. A(C  20,C  21,H  64)          109.7232         0.325144   
    211. A(C  22,C  21,H  63)          109.9085         0.325577   
    212. A(C  20,C  21,H  63)          110.2389         0.325467   
    213. A(H  65,C  22,H  66)          107.8259         0.288617   
    214. A(C  21,C  22,C  23)          111.4625         0.366114   
    215. A(C  23,C  22,H  66)          109.4829         0.324772   
    216. A(C  21,C  22,H  66)          110.5736         0.325578   
    217. A(C  23,C  22,H  65)          109.0838         0.322820   
    218. A(C  21,C  22,H  65)          108.3224         0.323620   
    219. A(C  22,C  23,H  68)          109.2347         0.324132   
    220. A(C  18,C  23,C  22)          111.9689         0.363603   
    221. A(H  67,C  23,H  68)          107.5869         0.289463   
    222. A(C  18,C  23,H  68)          109.0302         0.322798   
    223. A(C  22,C  23,H  67)          109.0761         0.324449   
    224. A(C  18,C  23,H  67)          109.8415         0.323113   
    225. A(C  25,C  24,C  29)          111.2544         0.362557   
    226. A(P  17,C  24,C  29)          110.5178         0.378400   
    227. A(P  17,C  24,C  25)          120.2437         0.378786   
    228. A(C  29,C  24,H  69)          106.1629         0.321777   
    229. A(C  25,C  24,H  69)          106.4764         0.322087   
    230. A(P  17,C  24,H  69)          100.6445         0.335586   
    231. A(C  24,C  25,C  26)          114.0418         0.363738   
    232. A(H  70,C  25,H  71)          106.8281         0.289297   
    233. A(C  26,C  25,H  71)          107.7918         0.323851   
    234. A(C  24,C  25,H  71)          107.3354         0.323153   
    235. A(C  26,C  25,H  70)          110.2681         0.324015   
    236. A(C  24,C  25,H  70)          110.2503         0.323316   
    237. A(C  25,C  26,C  27)          110.8044         0.365440   
    238. A(H  72,C  26,H  73)          107.7676         0.290208   
    239. A(C  27,C  26,H  73)          110.2652         0.324982   
    240. A(C  25,C  26,H  73)          108.9655         0.324229   
    241. A(C  27,C  26,H  72)          108.2936         0.325459   
    242. A(C  25,C  26,H  72)          110.6964         0.324704   
    243. A(C  26,C  27,C  28)          109.2978         0.366461   
    244. A(H  74,C  27,H  75)          107.9147         0.290053   
    245. A(C  28,C  27,H  75)          109.6272         0.325130   
    246. A(C  26,C  27,H  75)          109.8751         0.325015   
    247. A(C  28,C  27,H  74)          110.2664         0.325359   
    248. A(C  26,C  27,H  74)          109.8435         0.325244   
    249. A(C  27,C  28,C  29)          110.3646         0.366920   
    250. A(H  76,C  28,H  77)          107.8004         0.290232   
    251. A(C  29,C  28,H  77)          109.5919         0.325670   
    252. A(C  27,C  28,H  77)          110.4417         0.325394   
    253. A(C  29,C  28,H  76)          109.2565         0.325582   
    254. A(C  27,C  28,H  76)          109.3367         0.325306   
    255. A(C  24,C  29,C  28)          112.5670         0.364707   
    256. A(H  78,C  29,H  79)          108.0368         0.288031   
    257. A(C  28,C  29,H  79)          108.8866         0.325108   
    258. A(C  24,C  29,H  79)          109.0814         0.322955   
    259. A(C  28,C  29,H  78)          109.3281         0.323551   
    260. A(C  24,C  29,H  78)          108.8392         0.321412   
    261. L(Rh  1,C  30,O  31,P  17, 2) 184.7473         0.639296   
    262. L(Rh  1,C  30,O  31,P  17, 1) 182.0965         0.639296   
    263. D(C  15,P   2,Rh  1,H   0)   -174.1420         0.002462   
    264. D(C   9,P   2,Rh  1,C  30)    131.1045         0.002462   
    265. D(C   9,P   2,Rh  1,P  17)    -96.5652         0.002462   
    266. D(C   3,P   2,Rh  1,P  17)    130.1064         0.002462   
    267. D(C  15,P   2,Rh  1,P  17)     10.1373         0.002462   
    268. D(C  15,P   2,Rh  1,C  30)   -122.1930         0.002462   
    269. D(C   3,P   2,Rh  1,H   0)    -54.1729         0.002462   
    270. D(C   3,P   2,Rh  1,C  30)     -2.2240         0.002462   
    271. D(C   9,P   2,Rh  1,H   0)     79.1555         0.002462   
    272. D(C   4,C   3,P   2,C  15)     30.2288         0.003209   
    273. D(C   8,C   3,P   2,C  15)    154.1605         0.003209   
    274. D(C   8,C   3,P   2,Rh  1)     30.6725         0.003209   
    275. D(H  32,C   3,P   2,C   9)     12.9765         0.003209   
    276. D(C   8,C   3,P   2,C   9)   -104.3685         0.003209   
    277. D(H  32,C   3,P   2,Rh  1)    148.0175         0.003209   
    278. D(H  32,C   3,P   2,C  15)    -88.4946         0.003209   
    279. D(C   4,C   3,P   2,C   9)    131.6999         0.003209   
    280. D(C   4,C   3,P   2,Rh  1)    -93.2591         0.003209   
    281. D(H  33,C   4,C   3,C   8)    178.6426         0.011128   
    282. D(H  33,C   4,C   3,H  32)     61.0912         0.011128   
    283. D(C   5,C   4,C   3,C   8)    -56.5005         0.011128   
    284. D(H  34,C   4,C   3,C   8)     62.3899         0.011128   
    285. D(H  34,C   4,C   3,P   2)   -173.4561         0.011128   
    286. D(C   5,C   4,C   3,H  32)   -174.0520         0.011128   
    287. D(H  34,C   4,C   3,H  32)    -55.1616         0.011128   
    288. D(H  33,C   4,C   3,P   2)    -57.2033         0.011128   
    289. D(C   5,C   4,C   3,P   2)     67.6536         0.011128   
    290. D(H  35,C   5,C   4,C   3)    -58.2778         0.011640   
    291. D(C   6,C   5,C   4,H  34)    -57.8758         0.011640   
    292. D(C   6,C   5,C   4,C   3)     60.4158         0.011640   
    293. D(C   6,C   5,C   4,H  33)   -174.7777         0.011640   
    294. D(H  36,C   5,C   4,H  34)     64.1741         0.011640   
    295. D(H  35,C   5,C   4,H  33)     66.5288         0.011640   
    296. D(H  36,C   5,C   4,H  33)    -52.7278         0.011640   
    297. D(H  35,C   5,C   4,H  34)   -176.5693         0.011640   
    298. D(H  36,C   5,C   4,C   3)   -177.5344         0.011640   
    299. D(C   7,C   6,C   5,H  35)     60.0508         0.011768   
    300. D(H  38,C   6,C   5,H  35)   -179.3321         0.011768   
    301. D(H  38,C   6,C   5,C   4)     61.1167         0.011768   
    302. D(H  37,C   6,C   5,C   4)    179.8026         0.011768   
    303. D(C   7,C   6,C   5,H  36)    178.8467         0.011768   
    304. D(H  37,C   6,C   5,H  35)    -60.6461         0.011768   
    305. D(C   7,C   6,C   5,C   4)    -59.5004         0.011768   
    306. D(H  37,C   6,C   5,H  36)     58.1497         0.011768   
    307. D(H  38,C   6,C   5,H  36)    -60.5363         0.011768   
    308. D(H  40,C   7,C   6,H  37)    -59.0749         0.011827   
    309. D(H  40,C   7,C   6,H  38)     59.7147         0.011827   
    310. D(C   8,C   7,C   6,H  37)    178.9116         0.011827   
    311. D(H  39,C   7,C   6,H  38)    177.8982         0.011827   
    312. D(H  39,C   7,C   6,H  37)     59.1086         0.011827   
    313. D(C   8,C   7,C   6,H  38)    -62.2988         0.011827   
    314. D(H  40,C   7,C   6,C   5)   -179.9466         0.011827   
    315. D(C   8,C   7,C   6,C   5)     58.0399         0.011827   
    316. D(H  39,C   7,C   6,C   5)    -61.7631         0.011827   
    317. D(H  42,C   8,C   3,P   2)    164.2201         0.010944   
    318. D(H  42,C   8,C   3,C   4)    -67.5492         0.010944   
    319. D(H  41,C   8,C   3,H  32)    -69.2880         0.010944   
    320. D(H  41,C   8,C   3,C   4)    174.4768         0.010944   
    321. D(C   7,C   8,C   3,C   4)     53.7867         0.010944   
    322. D(C   7,C   8,C   3,P   2)    -74.4441         0.010944   
    323. D(H  42,C   8,C   3,H  32)     48.6861         0.010944   
    324. D(C   7,C   8,C   3,H  32)    170.0219         0.010944   
    325. D(H  41,C   8,C   3,P   2)     46.2460         0.010944   
    326. D(H  42,C   8,C   7,H  40)    -57.6929         0.011501   
    327. D(H  42,C   8,C   7,C   6)     64.9218         0.011501   
    328. D(H  41,C   8,C   7,H  40)     59.9721         0.011501   
    329. D(H  41,C   8,C   7,H  39)    -57.4836         0.011501   
    330. D(H  41,C   8,C   7,C   6)   -177.4133         0.011501   
    331. D(C   3,C   8,C   7,H  40)   -178.7594         0.011501   
    332. D(H  42,C   8,C   7,H  39)   -175.1486         0.011501   
    333. D(C   3,C   8,C   7,H  39)     63.7849         0.011501   
    334. D(C   3,C   8,C   7,C   6)    -56.1448         0.011501   
    335. D(H  43,C   9,P   2,C  15)    -26.0592         0.003130   
    336. D(H  43,C   9,P   2,C   3)   -130.1374         0.003130   
    337. D(H  43,C   9,P   2,Rh  1)     88.0681         0.003130   
    338. D(C  14,C   9,P   2,C  15)   -138.2193         0.003130   
    339. D(C  14,C   9,P   2,C   3)    117.7026         0.003130   
    340. D(C  14,C   9,P   2,Rh  1)    -24.0919         0.003130   
    341. D(C  10,C   9,P   2,C  15)     90.4459         0.003130   
    342. D(C  10,C   9,P   2,C   3)    -13.6322         0.003130   
    343. D(C  10,C   9,P   2,Rh  1)   -155.4267         0.003130   
    344. D(H  45,C  10,C   9,C  14)     70.8997         0.011098   
    345. D(H  45,C  10,C   9,P   2)   -158.1969         0.011098   
    346. D(H  44,C  10,C   9,H  43)     71.5023         0.011098   
    347. D(H  44,C  10,C   9,C  14)   -173.0682         0.011098   
    348. D(H  45,C  10,C   9,H  43)    -44.5297         0.011098   
    349. D(C  11,C  10,C   9,P   2)     82.4682         0.011098   
    350. D(H  44,C  10,C   9,P   2)    -42.1648         0.011098   
    351. D(C  11,C  10,C   9,H  43)   -163.8646         0.011098   
    352. D(C  11,C  10,C   9,C  14)    -48.4352         0.011098   
    353. D(H  47,C  11,C  10,H  44)    -60.3561         0.011384   
    354. D(H  47,C  11,C  10,C   9)    175.0555         0.011384   
    355. D(H  46,C  11,C  10,H  45)    174.4299         0.011384   
    356. D(H  46,C  11,C  10,H  44)     58.0720         0.011384   
    357. D(C  12,C  11,C  10,H  45)    -65.4941         0.011384   
    358. D(C  12,C  11,C  10,H  44)    178.1479         0.011384   
    359. D(H  46,C  11,C  10,C   9)    -66.5164         0.011384   
    360. D(C  12,C  11,C  10,C   9)     53.5595         0.011384   
    361. D(H  47,C  11,C  10,H  45)     56.0018         0.011384   
    362. D(H  49,C  12,C  11,H  47)    -58.9451         0.011666   
    363. D(H  49,C  12,C  11,C  10)     61.8002         0.011666   
    364. D(H  48,C  12,C  11,H  47)     59.5433         0.011666   
    365. D(H  48,C  12,C  11,H  46)    -58.2973         0.011666   
    366. D(H  48,C  12,C  11,C  10)   -179.7114         0.011666   
    367. D(C  13,C  12,C  11,H  47)   -179.3388         0.011666   
    368. D(H  49,C  12,C  11,H  46)   -176.7858         0.011666   
    369. D(C  13,C  12,C  11,H  46)     62.8205         0.011666   
    370. D(C  13,C  12,C  11,C  10)    -58.5935         0.011666   
    371. D(H  51,C  13,C  12,H  49)     61.3949         0.011725   
    372. D(H  51,C  13,C  12,H  48)    -57.2322         0.011725   
    373. D(H  50,C  13,C  12,H  48)     61.4337         0.011725   
    374. D(H  50,C  13,C  12,H  49)   -179.9391         0.011725   
    375. D(H  50,C  13,C  12,C  11)    -59.4496         0.011725   
    376. D(C  14,C  13,C  12,H  49)    -59.9144         0.011725   
    377. D(C  14,C  13,C  12,H  48)   -178.5416         0.011725   
    378. D(C  14,C  13,C  12,C  11)     60.5751         0.011725   
    379. D(H  51,C  13,C  12,C  11)   -178.1156         0.011725   
    380. D(H  53,C  14,C   9,H  43)     43.8962         0.010915   
    381. D(H  53,C  14,C   9,C  10)    -71.6468         0.010915   
    382. D(H  53,C  14,C   9,P   2)    152.6389         0.010915   
    383. D(H  52,C  14,C   9,H  43)    -74.1192         0.010915   
    384. D(H  52,C  14,C   9,C  10)    170.3378         0.010915   
    385. D(C  13,C  14,C   9,H  43)    165.2473         0.010915   
    386. D(C  13,C  14,C   9,C  10)     49.7043         0.010915   
    387. D(C  13,C  14,C   9,P   2)    -86.0100         0.010915   
    388. D(C   9,C  14,C  13,C  12)    -56.6941         0.011820   
    389. D(H  52,C  14,C   9,P   2)     34.6235         0.010915   
    390. D(H  53,C  14,C  13,H  50)   -174.7904         0.011820   
    391. D(H  53,C  14,C  13,C  12)     64.6543         0.011820   
    392. D(H  52,C  14,C  13,H  51)     60.8843         0.011820   
    393. D(H  53,C  14,C  13,H  51)    -57.1780         0.011820   
    394. D(H  52,C  14,C  13,H  50)    -56.7281         0.011820   
    395. D(H  52,C  14,C  13,C  12)   -177.2834         0.011820   
    396. D(C   9,C  14,C  13,H  51)   -178.5264         0.011820   
    397. D(C   9,C  14,C  13,H  50)     63.8612         0.011820   
    398. D(H  55,C  15,P   2,C   9)   -160.4049         0.003373   
    399. D(H  55,C  15,P   2,C   3)    -51.0482         0.003373   
    400. D(H  55,C  15,P   2,Rh  1)     83.1911         0.003373   
    401. D(H  54,C  15,P   2,C   9)    -42.0864         0.003373   
    402. D(H  54,C  15,P   2,C   3)     67.2702         0.003373   
    403. D(H  54,C  15,P   2,Rh  1)   -158.4905         0.003373   
    404. D(C  16,C  15,P   2,C   9)     80.8715         0.003373   
    405. D(C  16,C  15,P   2,C   3)   -169.7718         0.003373   
    406. D(C  16,C  15,P   2,Rh  1)    -35.5325         0.003373   
    407. D(H  57,C  16,C  15,H  55)     49.7952         0.011773   
    408. D(H  57,C  16,C  15,H  54)    -69.4018         0.011773   
    409. D(H  57,C  16,C  15,P   2)    167.9975         0.011773   
    410. D(H  56,C  16,C  15,H  55)    169.1205         0.011773   
    411. D(H  56,C  16,C  15,H  54)     49.9235         0.011773   
    412. D(H  56,C  16,C  15,P   2)    -72.6772         0.011773   
    413. D(P  17,C  16,C  15,P   2)     45.3374         0.011773   
    414. D(P  17,C  16,C  15,H  55)    -72.8649         0.011773   
    415. D(P  17,C  16,C  15,H  54)    167.9381         0.011773   
    416. D(C  24,P  17,C  16,H  56)   -160.6060         0.003406   
    417. D(C  24,P  17,C  16,C  15)     80.6945         0.003406   
    418. D(C  18,P  17,C  16,H  57)     66.3353         0.003406   
    419. D(C  18,P  17,C  16,C  15)   -170.6118         0.003406   
    420. D(Rh  1,P  17,C  16,H  57)   -159.8609         0.003406   
    421. D(Rh  1,P  17,C  16,H  56)     81.8915         0.003406   
    422. D(Rh  1,P  17,C  16,C  15)    -36.8080         0.003406   
    423. D(C  24,P  17,Rh  1,C  30)     78.9921         0.002407   
    424. D(C  24,P  17,Rh  1,P   2)    -95.4284         0.002407   
    425. D(C  24,P  17,Rh  1,H   0)   -149.5483         0.002407   
    426. D(C  18,P  17,Rh  1,C  30)    -54.6932         0.002407   
    427. D(C  18,P  17,Rh  1,P   2)    130.8862         0.002407   
    428. D(C  18,P  17,C  16,H  56)    -51.9124         0.003406   
    429. D(C  18,P  17,Rh  1,H   0)     76.7664         0.002407   
    430. D(C  16,P  17,Rh  1,C  30)   -173.9160         0.002407   
    431. D(C  16,P  17,Rh  1,P   2)     11.6634         0.002407   
    432. D(C  24,P  17,C  16,H  57)    -42.3584         0.003406   
    433. D(C  16,P  17,Rh  1,H   0)    -42.4564         0.002407   
    434. D(H  58,C  18,P  17,C  24)     13.0380         0.003174   
    435. D(H  58,C  18,P  17,C  16)    -88.2981         0.003174   
    436. D(H  58,C  18,P  17,Rh  1)    149.0417         0.003174   
    437. D(C  23,C  18,P  17,C  24)   -104.1791         0.003174   
    438. D(C  23,C  18,P  17,C  16)    154.4848         0.003174   
    439. D(C  23,C  18,P  17,Rh  1)     31.8246         0.003174   
    440. D(C  19,C  18,P  17,C  24)    131.8571         0.003174   
    441. D(C  19,C  18,P  17,C  16)     30.5210         0.003174   
    442. D(C  19,C  18,P  17,Rh  1)    -92.1391         0.003174   
    443. D(H  60,C  19,C  18,H  58)    -54.7035         0.011129   
    444. D(H  60,C  19,C  18,C  23)     62.7194         0.011129   
    445. D(H  60,C  19,C  18,P  17)   -173.1331         0.011129   
    446. D(H  59,C  19,C  18,H  58)     61.5524         0.011129   
    447. D(H  59,C  19,C  18,C  23)    178.9753         0.011129   
    448. D(H  59,C  19,C  18,P  17)    -56.8772         0.011129   
    449. D(C  20,C  19,C  18,H  58)   -173.6367         0.011129   
    450. D(C  20,C  19,C  18,C  23)    -56.2138         0.011129   
    451. D(C  20,C  19,C  18,P  17)     67.9337         0.011129   
    452. D(H  62,C  20,C  19,H  60)     63.8670         0.011636   
    453. D(H  62,C  20,C  19,H  59)    -53.0060         0.011636   
    454. D(H  62,C  20,C  19,C  18)   -177.7772         0.011636   
    455. D(H  61,C  20,C  19,H  60)   -176.9491         0.011636   
    456. D(H  61,C  20,C  19,H  59)     66.1779         0.011636   
    457. D(H  61,C  20,C  19,C  18)    -58.5932         0.011636   
    458. D(C  21,C  20,C  19,H  60)    -58.0695         0.011636   
    459. D(C  21,C  20,C  19,H  59)   -174.9425         0.011636   
    460. D(C  21,C  20,C  19,C  18)     60.2863         0.011636   
    461. D(H  64,C  21,C  20,H  61)   -179.3715         0.011742   
    462. D(H  64,C  21,C  20,C  19)     60.9349         0.011742   
    463. D(H  63,C  21,C  20,H  62)     58.1406         0.011742   
    464. D(H  63,C  21,C  20,H  61)    -60.6025         0.011742   
    465. D(H  63,C  21,C  20,C  19)    179.7039         0.011742   
    466. D(C  22,C  21,C  20,H  62)    178.7896         0.011742   
    467. D(C  22,C  21,C  20,H  61)     60.0466         0.011742   
    468. D(H  64,C  21,C  20,H  62)    -60.6284         0.011742   
    469. D(C  22,C  21,C  20,C  19)    -59.6471         0.011742   
    470. D(H  66,C  22,C  21,H  64)     59.9520         0.011788   
    471. D(H  66,C  22,C  21,H  63)    -58.8531         0.011788   
    472. D(H  66,C  22,C  21,C  20)   -179.7051         0.011788   
    473. D(H  65,C  22,C  21,H  64)    177.9045         0.011788   
    474. D(H  65,C  22,C  21,H  63)     59.0994         0.011788   
    475. D(H  65,C  22,C  21,C  20)    -61.7526         0.011788   
    476. D(C  23,C  22,C  21,H  64)    -62.0778         0.011788   
    477. D(C  23,C  22,C  21,H  63)    179.1171         0.011788   
    478. D(C  23,C  22,C  21,C  20)     58.2651         0.011788   
    479. D(H  68,C  23,C  22,H  66)    -58.1222         0.011455   
    480. D(H  68,C  23,C  22,H  65)   -175.8970         0.011455   
    481. D(H  68,C  23,C  22,C  21)     64.5355         0.011455   
    482. D(H  67,C  23,C  22,H  65)    -58.5570         0.011455   
    483. D(H  67,C  23,C  22,C  21)   -178.1245         0.011455   
    484. D(C  18,C  23,C  22,H  66)   -178.9952         0.011455   
    485. D(C  18,C  23,C  22,H  65)     63.2300         0.011455   
    486. D(C  18,C  23,C  22,C  21)    -56.3375         0.011455   
    487. D(H  68,C  23,C  18,H  58)     48.8725         0.010925   
    488. D(H  68,C  23,C  18,C  19)    -67.2549         0.010925   
    489. D(H  68,C  23,C  18,P  17)    164.3402         0.010925   
    490. D(H  67,C  23,C  18,H  58)    -68.7893         0.010925   
    491. D(H  67,C  23,C  18,C  19)    175.0833         0.010925   
    492. D(H  67,C  23,C  22,H  66)     59.2179         0.011455   
    493. D(H  67,C  23,C  18,P  17)     46.6784         0.010925   
    494. D(C  22,C  23,C  18,H  58)    169.8639         0.010925   
    495. D(C  22,C  23,C  18,C  19)     53.7365         0.010925   
    496. D(C  22,C  23,C  18,P  17)    -74.6684         0.010925   
    497. D(H  69,C  24,P  17,C  18)   -131.7714         0.003105   
    498. D(H  69,C  24,P  17,C  16)    -27.9869         0.003105   
    499. D(H  69,C  24,P  17,Rh  1)     86.0452         0.003105   
    500. D(C  29,C  24,P  17,C  18)    116.3423         0.003105   
    501. D(C  29,C  24,P  17,C  16)   -139.8732         0.003105   
    502. D(C  29,C  24,P  17,Rh  1)    -25.8411         0.003105   
    503. D(C  25,C  24,P  17,C  18)    -15.4354         0.003105   
    504. D(C  25,C  24,P  17,C  16)     88.3492         0.003105   
    505. D(C  25,C  24,P  17,Rh  1)   -157.6188         0.003105   
    506. D(H  71,C  25,C  24,H  69)    -43.7816         0.011071   
    507. D(H  71,C  25,C  24,C  29)     71.4653         0.011071   
    508. D(H  71,C  25,C  24,P  17)   -157.0734         0.011071   
    509. D(H  70,C  25,C  24,H  69)     72.2212         0.011071   
    510. D(H  70,C  25,C  24,C  29)   -172.5319         0.011071   
    511. D(H  70,C  25,C  24,P  17)    -41.0706         0.011071   
    512. D(C  26,C  25,C  24,H  69)   -163.1060         0.011071   
    513. D(C  26,C  25,C  24,C  29)    -47.8591         0.011071   
    514. D(C  26,C  25,C  24,P  17)     83.6022         0.011071   
    515. D(C  27,C  26,C  25,H  71)    -66.1420         0.011349   
    516. D(C  27,C  26,C  25,H  70)    177.5872         0.011349   
    517. D(C  27,C  26,C  25,C  24)     52.9238         0.011349   
    518. D(H  73,C  26,C  25,H  71)     55.3491         0.011349   
    519. D(H  73,C  26,C  25,H  70)    -60.9217         0.011349   
    520. D(H  73,C  26,C  25,C  24)    174.4150         0.011349   
    521. D(H  72,C  26,C  25,H  71)    173.6932         0.011349   
    522. D(H  72,C  26,C  25,H  70)     57.4224         0.011349   
    523. D(H  72,C  26,C  25,C  24)    -67.2410         0.011349   
    524. D(H  75,C  27,C  26,H  73)    -58.8729         0.011657   
    525. D(H  75,C  27,C  26,H  72)   -176.5618         0.011657   
    526. D(H  75,C  27,C  26,C  25)     61.8506         0.011657   
    527. D(H  74,C  27,C  26,H  73)     59.6944         0.011657   
    528. D(H  74,C  27,C  26,H  72)    -57.9946         0.011657   
    529. D(H  74,C  27,C  26,C  25)   -179.5822         0.011657   
    530. D(C  28,C  27,C  26,H  73)   -179.2054         0.011657   
    531. D(C  28,C  27,C  26,H  72)     63.1057         0.011657   
    532. D(C  28,C  27,C  26,C  25)    -58.4819         0.011657   
    533. D(H  77,C  28,C  27,H  74)    -56.7658         0.011705   
    534. D(H  77,C  28,C  27,C  26)   -177.6088         0.011705   
    535. D(H  76,C  28,C  27,H  75)   -179.6331         0.011705   
    536. D(H  76,C  28,C  27,H  74)     61.6942         0.011705   
    537. D(H  76,C  28,C  27,C  26)    -59.1488         0.011705   
    538. D(C  29,C  28,C  27,H  75)    -59.4295         0.011705   
    539. D(C  29,C  28,C  27,H  74)   -178.1023         0.011705   
    540. D(H  77,C  28,C  27,H  75)     61.9070         0.011705   
    541. D(C  29,C  28,C  27,C  26)     61.0547         0.011705   
    542. D(H  79,C  29,C  28,H  77)    -58.1264         0.011821   
    543. D(H  79,C  29,C  28,H  76)   -176.0347         0.011821   
    544. D(H  78,C  29,C  28,H  77)     59.6996         0.011821   
    545. D(H  78,C  29,C  28,H  76)    -58.2088         0.011821   
    546. D(H  78,C  29,C  28,C  27)   -178.4605         0.011821   
    547. D(C  24,C  29,C  28,H  77)   -179.2134         0.011821   
    548. D(C  24,C  29,C  28,H  76)     62.8782         0.011821   
    549. D(C  24,C  29,C  28,C  27)    -57.3735         0.011821   
    550. D(H  79,C  29,C  24,H  69)     44.2959         0.010949   
    551. D(H  79,C  29,C  24,C  25)    -71.1448         0.010949   
    552. D(H  79,C  29,C  24,P  17)    152.5846         0.010949   
    553. D(H  78,C  29,C  24,H  69)    -73.3625         0.010949   
    554. D(H  78,C  29,C  24,C  25)    171.1968         0.010949   
    555. D(H  78,C  29,C  24,P  17)     34.9263         0.010949   
    556. D(H  79,C  29,C  28,C  27)     63.7136         0.011821   
    557. D(C  28,C  29,C  24,H  69)    165.2716         0.010949   
    558. D(C  28,C  29,C  24,C  25)     49.8309         0.010949   
    559. D(C  28,C  29,C  24,P  17)    -86.4397         0.010949   
    -----------------------------------------------------------------

Number of atoms                         .... 80
Number of degrees of freedom            .... 559

         *************************************************************
         *                GEOMETRY OPTIMIZATION CYCLE   1            *
         *************************************************************
---------------------------------
CARTESIAN COORDINATES (ANGSTROEM)
---------------------------------
  H      0.862099    1.361462   -1.316090
  Rh     1.503141    0.178520   -0.576850
  P      2.718927    1.586630    0.717477
  C      3.861320    2.946169    0.091251
  C      5.335245    2.571970   -0.079167
  C      5.538843    1.565296   -1.204732
  C      5.054053    2.163024   -2.518001
  C      3.578398    2.509838   -2.387776
  C      3.327928    3.484137   -1.241032
  C      1.691997    2.318363    2.124323
  C      2.095217    3.656079    2.749325
  C      1.613188    4.874213    1.964910
  C      0.110140    4.800897    1.727744
  C     -0.219756    3.525088    0.964828
  C      0.202663    2.299574    1.761538
  C      3.896265    0.586390    1.772508
  C      3.229325   -0.719756    2.179911
  P      2.388866   -1.484743    0.696906
  C      1.418446   -2.877964    1.517221
  C      0.947894   -2.633263    2.952547
  C     -0.120839   -1.549520    3.024866
  C     -1.330488   -1.968487    2.200746
  C     -0.895729   -2.174344    0.756843
  C      0.203962   -3.226919    0.649492
  C      3.923559   -2.273788   -0.077149
  C      4.352515   -3.686178    0.328976
  C      3.622829   -4.798185   -0.421913
  C      3.722510   -4.589952   -1.927837
  C      3.126756   -3.235769   -2.289196
  C      3.896744   -2.118062   -1.601525
  C      0.607088   -0.839488   -1.809760
  O      0.084135   -1.442689   -2.642129
  H      3.820610    3.744911    0.838867
  H      5.758092    2.205858    0.858194
  H      5.879264    3.488460   -0.331581
  H      4.953669    0.663505   -1.001969
  H      6.593278    1.285869   -1.272303
  H      5.198545    1.450864   -3.332815
  H      5.632831    3.061329   -2.749683
  H      3.012515    1.584950   -2.192266
  H      3.203998    2.940527   -3.318225
  H      2.252841    3.663220   -1.161972
  H      3.812959    4.440697   -1.460619
  H      1.829288    1.554960    2.905143
  H      3.179842    3.697835    2.888160
  H      1.645966    3.699544    3.747081
  H      2.111219    4.928398    0.996326
  H      1.865417    5.779974    2.522560
  H     -0.218887    5.674873    1.162037
  H     -0.416666    4.803254    2.685535
  H      0.307168    3.521768    0.008343
  H     -1.290101    3.472850    0.757035
  H     -0.004604    1.396775    1.162040
  H     -0.389921    2.246825    2.680247
  H      4.211799    1.161322    2.649954
  H      4.781276    0.362826    1.176442
  H      2.464790   -0.510830    2.929148
  H      3.953955   -1.417199    2.614688
  H      2.091489   -3.740308    1.547031
  H      1.789935   -2.398960    3.606180
  H      0.516184   -3.570183    3.320813
  H      0.271916   -0.616274    2.610800
  H     -0.405285   -1.372777    4.065071
  H     -2.105138   -1.200872    2.249879
  H     -1.748186   -2.895185    2.603335
  H     -0.515684   -1.215587    0.369551
  H     -1.745367   -2.471132    0.138982
  H      0.509292   -3.319312   -0.396239
  H     -0.193360   -4.197174    0.965091
  H      4.707730   -1.592697    0.286629
  H      4.239293   -3.820533    1.408971
  H      5.421075   -3.778769    0.108301
  H      2.567228   -4.819636   -0.148406
  H      4.059280   -5.760802   -0.143094
  H      3.190107   -5.388387   -2.448414
  H      4.769515   -4.625317   -2.239329
  H      2.082877   -3.203217   -1.970134
  H      3.150173   -3.085152   -3.370090
  H      3.434955   -1.148956   -1.852290
  H      4.924149   -2.111557   -1.978638

----------------------------
CARTESIAN COORDINATES (A.U.)
----------------------------
  NO LB      ZA    FRAG     MASS         X           Y           Z
   0 H     1.0000    0     1.008    1.629132    2.572790   -2.487050
   1 Rh   17.0000*   0   102.910    2.840526    0.337355   -1.090089
   2 P    15.0000    0    30.974    5.138027    2.998296    1.355835
   3 C     6.0000    0    12.011    7.296837    5.567452    0.172439
   4 C     6.0000    0    12.011   10.082152    4.860319   -0.149604
   5 C     6.0000    0    12.011   10.466896    2.957981   -2.276614
   6 C     6.0000    0    12.011    9.550775    4.087522   -4.758333
   7 C     6.0000    0    12.011    6.762191    4.742907   -4.512242
   8 C     6.0000    0    12.011    6.288872    6.584064   -2.345210
   9 C     6.0000    0    12.011    3.197410    4.381072    4.014388
  10 C     6.0000    0    12.011    3.959387    6.908989    5.195471
  11 C     6.0000    0    12.011    3.048483    9.210928    3.713141
  12 C     6.0000    0    12.011    0.208134    9.072381    3.264963
  13 C     6.0000    0    12.011   -0.415278    6.661450    1.823260
  14 C     6.0000    0    12.011    0.382977    4.345564    3.328824
  15 C     6.0000    0    12.011    7.362874    1.108116    3.349555
  16 C     6.0000    0    12.011    6.102539   -1.360141    4.119434
  17 P    15.0000    0    30.974    4.514302   -2.805758    1.316961
  18 C     6.0000    0    12.011    2.680475   -5.438563    2.867131
  19 C     6.0000    0    12.011    1.791260   -4.976147    5.579506
  20 C     6.0000    0    12.011   -0.228352   -2.928169    5.716168
  21 C     6.0000    0    12.011   -2.514257   -3.719902    4.158808
  22 C     6.0000    0    12.011   -1.692683   -4.108914    1.430225
  23 C     6.0000    0    12.011    0.385432   -6.097994    1.227363
  24 C     6.0000    0    12.011    7.414452   -4.296836   -0.145790
  25 C     6.0000    0    12.011    8.225061   -6.965868    0.621674
  26 C     6.0000    0    12.011    6.846155   -9.067256   -0.797300
  27 C     6.0000    0    12.011    7.034525   -8.673752   -3.643083
  28 C     6.0000    0    12.011    5.908713   -6.114718   -4.325953
  29 C     6.0000    0    12.011    7.363779   -4.002557   -3.026443
  30 C     6.0000    0    12.011    1.147229   -1.586402   -3.419951
  31 O     8.0000    0    15.999    0.158992   -2.726287   -4.992900
  32 H     1.0000    0     1.008    7.219906    7.076856    1.585229
  33 H     1.0000    0     1.008   10.881218    4.168468    1.621751
  34 H     1.0000    0     1.008   11.110199    6.592233   -0.626597
  35 H     1.0000    0     1.008    9.361077    1.253843   -1.893447
  36 H     1.0000    0     1.008   12.459489    2.429940   -2.404305
  37 H     1.0000    0     1.008    9.823827    2.741735   -6.298108
  38 H     1.0000    0     1.008   10.644508    5.785074   -5.196148
  39 H     1.0000    0     1.008    5.692828    2.995121   -4.142782
  40 H     1.0000    0     1.008    6.054678    5.556791   -6.270536
  41 H     1.0000    0     1.008    4.257252    6.922483   -2.195809
  42 H     1.0000    0     1.008    7.205448    8.391702   -2.760171
  43 H     1.0000    0     1.008    3.456853    2.938449    5.489924
  44 H     1.0000    0     1.008    6.009030    6.987895    5.457831
  45 H     1.0000    0     1.008    3.110425    6.991125    7.080957
  46 H     1.0000    0     1.008    3.989627    9.313322    1.882784
  47 H     1.0000    0     1.008    3.525128   10.922567    4.766948
  48 H     1.0000    0     1.008   -0.413637   10.723956    2.195932
  49 H     1.0000    0     1.008   -0.787385    9.076835    5.074926
  50 H     1.0000    0     1.008    0.580464    6.655177    0.015766
  51 H     1.0000    0     1.008   -2.437938    6.562736    1.430589
  52 H     1.0000    0     1.008   -0.008699    2.639522    2.195938
  53 H     1.0000    0     1.008   -0.736844    4.245884    5.064933
  54 H     1.0000    0     1.008    7.959147    2.194581    5.007688
  55 H     1.0000    0     1.008    9.035303    0.685641    2.223152
  56 H     1.0000    0     1.008    4.657778   -0.965329    5.535288
  57 H     1.0000    0     1.008    7.471893   -2.678118    4.941044
  58 H     1.0000    0     1.008    3.952341   -7.068157    2.923465
  59 H     1.0000    0     1.008    3.382487   -4.533377    6.814692
  60 H     1.0000    0     1.008    0.975447   -6.746669    6.275427
  61 H     1.0000    0     1.008    0.513846   -1.164589    4.933697
  62 H     1.0000    0     1.008   -0.765877   -2.594173    7.681870
  63 H     1.0000    0     1.008   -3.978133   -2.269319    4.251655
  64 H     1.0000    0     1.008   -3.303593   -5.471106    4.919591
  65 H     1.0000    0     1.008   -0.974502   -2.297126    0.698351
  66 H     1.0000    0     1.008   -3.298265   -4.669762    0.262638
  67 H     1.0000    0     1.008    0.962422   -6.272590   -0.748783
  68 H     1.0000    0     1.008   -0.365398   -7.931509    1.823757
  69 H     1.0000    0     1.008    8.896320   -3.009761    0.541650
  70 H     1.0000    0     1.008    8.011103   -7.219762    2.662569
  71 H     1.0000    0     1.008   10.244348   -7.140838    0.204659
  72 H     1.0000    0     1.008    4.851357   -9.107792   -0.280448
  73 H     1.0000    0     1.008    7.670927  -10.886339   -0.270409
  74 H     1.0000    0     1.008    6.028428  -10.182576   -4.626832
  75 H     1.0000    0     1.008    9.013077   -8.740583   -4.231718
  76 H     1.0000    0     1.008    3.936068   -6.053202   -3.723014
  77 H     1.0000    0     1.008    5.952964   -5.830093   -6.368547
  78 H     1.0000    0     1.008    6.491124   -2.171212   -3.500321
  79 H     1.0000    0     1.008    9.305293   -3.990265   -3.739084
* core charge reduced due to ECP

--------------------------------
INTERNAL COORDINATES (ANGSTROEM)
--------------------------------
 H      0   0   0     0.000000000000     0.00000000     0.00000000
 Rh     1   0   0     1.535174474241     0.00000000     0.00000000
 P      2   1   0     2.266316227947    91.16070383     0.00000000
 C      3   2   1     1.882967533669   125.74199268   305.82708628
 C      4   3   2     1.530203503970   116.41434690   266.74087232
 C      5   4   3     1.523726384616   111.87187709    67.65358115
 C      6   5   4     1.522161231781   109.59264234    60.41575728
 C      7   6   5     1.521445816587   108.93941587   300.49962670
 C      8   7   6     1.525455198418   111.66543739    58.03985114
 C      3   2   1     1.889241842456   111.98311313    79.15549986
 C     10   3   2     1.530587709949   119.95948470   204.57326246
 C     11  10   3     1.526928334356   113.84734518    82.46819682
 C     12  11  10     1.523409302920   110.67393089    53.55952538
 C     13  12  11     1.522682405453   109.39529024   301.40645316
 C     14  13  12     1.521535094952   110.63153791    60.57505920
 C      3   2   1     1.870747651494   109.11704221   185.85804443
 C     16   3   2     1.522104714775   109.51196008   324.46745870
 P     17  16   3     1.868389626072   109.63328498    45.33740266
 C     18  17  16     1.885654434144   100.87770767   189.38819141
 C     19  18  17     1.530183335230   116.62596371    30.52102446
 C     20  19  18     1.523783945208   111.95836419    67.93370603
 C     21  20  19     1.522483704833   109.62395047    60.28632193
 C     22  21  20     1.521922822177   108.89324102   300.35292684
 C     23  22  21     1.526027724399   111.46247485    58.26514586
 C     18  17  16     1.891305087973    97.50734898    80.69453435
 C     25  18  17     1.530943272134   120.24368522    88.34915251
 C     26  25  18     1.527362014798   114.04175289    83.60219948
 C     27  26  25     1.523517084668   110.80442848    52.92383201
 C     28  27  26     1.522929608381   109.29783313   301.51806411
 C     29  28  27     1.521526242293   110.36457766    61.05469165
 C      2   1   3     1.832844823238    84.25660132   185.89633807
 O     31   2   1     1.153329251074   176.06602292    60.10758757
 H      4   3   2     1.094795194270   106.08737759   148.01745245
 H      5   4   3     1.091550318051   111.07060755   302.79669950
 H      5   4   3     1.095272859393   107.42581432   186.54392658
 H      6   5   4     1.093969304212   109.64664600   301.72223909
 H      6   5   4     1.092921839836   110.09001243   182.46562165
 H      7   6   5     1.091774276463   110.21864878   179.80264471
 H      7   6   5     1.093441165568   109.68380636    61.11669562
 H      8   7   6     1.101755835439   108.78344221   298.23692658
 H      8   7   6     1.091514484282   110.46699123   180.05337088
 H      9   8   7     1.092764465606   108.69886141   182.58668408
 H      9   8   7     1.094751920396   109.54452403    64.92176134
 H     10   3   2     1.100596773264   101.06032675    88.06810469
 H     11  10   3     1.094271115939   110.25976772   317.83516426
 H     11  10   3     1.095095205236   107.37714562   201.80309508
 H     12  11  10     1.090469927731   110.59517491   293.48355917
 H     12  11  10     1.093158693054   109.03250802   175.05547455
 H     13  12  11     1.091840942256   109.84406441   180.28859032
 H     13  12  11     1.093112131074   109.81467221    61.80016807
 H     14  13  12     1.092026995708   109.68527913   300.55036411
 H     14  13  12     1.091579616199   110.35968385   181.88438082
 H     15  14  13     1.103359359479   108.80698494   182.71657952
 H     15  14  13     1.094515799378   109.14880230    64.65431930
 H     16   3   2     1.095454313247   110.63337617   201.50951302
 H     16   3   2     1.090193228857   108.19131841    83.19110687
 H     17  16   3     1.090651307724   109.06504660   287.32284155
 H     17  16   3     1.095695334990   111.26273521   167.99746804
 H     19  18  17     1.094308803294   106.11502689   271.70186564
 H     20  19  18     1.091406236100   111.02913139   303.12279174
 H     20  19  18     1.095359127917   107.44429720   186.86686747
 H     21  20  19     1.093917228814   109.69283316   301.40675988
 H     21  20  19     1.092782729690   110.04565924   182.22281516
 H     22  21  20     1.091664014664   110.23887106   179.70389107
 H     22  21  20     1.093305938431   109.72317892    60.93489942
 H     23  22  21     1.101654857271   108.32239639   298.24743066
 H     23  22  21     1.091658340455   110.57359428   180.29489628
 H     24  23  22     1.093305613055   109.07611880   181.87553509
 H     24  23  22     1.094925086846   109.23472750    64.53549105
 H     25  18  17     1.100519266635   100.64445922   332.01314018
 H     26  25  18     1.094193685706   110.25034686   318.92940146
 H     26  25  18     1.095030376820   107.33540819   202.92659083
 H     27  26  25     1.090669489777   110.69642934   292.75903741
 H     27  26  25     1.093096851895   108.96549360   174.41496487
 H     28  27  26     1.091765899032   109.84349029   180.41782074
 H     28  27  26     1.092930164427   109.87513406    61.85056206
 H     29  28  27     1.092036323621   109.33665886   300.85115117
 H     29  28  27     1.091588404782   110.44166377   182.39120161
 H     30  29  28     1.102406031957   109.32806259   181.53950695
 H     30  29  28     1.094448417761   108.88660614    63.71358590

---------------------------
INTERNAL COORDINATES (A.U.)
---------------------------
 H      0   0   0     0.000000000000     0.00000000     0.00000000
 Rh     1   0   0     2.901059324102     0.00000000     0.00000000
 P      2   1   0     4.282717003681    91.16070383     0.00000000
 C      3   2   1     3.558292957699   125.74199268   305.82708628
 C      4   3   2     2.891665551670   116.41434690   266.74087232
 C      5   4   3     2.879425569954   111.87187709    67.65358115
 C      6   5   4     2.876467859738   109.59264234    60.41575728
 C      7   6   5     2.875115920949   108.93941587   300.49962670
 C      8   7   6     2.882692554577   111.66543739    58.03985114
 C      3   2   1     3.570149682987   111.98311313    79.15549986
 C     10   3   2     2.892391595749   119.95948470   204.57326246
 C     11  10   3     2.885476378058   113.84734518    82.46819682
 C     12  11  10     2.878826372386   110.67393089    53.55952538
 C     13  12  11     2.877452735247   109.39529024   301.40645316
 C     14  13  12     2.875284632610   110.63153791    60.57505920
 C      3   2   1     3.535200727000   109.11704221   185.85804443
 C     16   3   2     2.876361058074   109.51196008   324.46745870
 P     17  16   3     3.530744704736   109.63328498    45.33740266
 C     18  17  16     3.563370463747   100.87770767   189.38819141
 C     19  18  17     2.891627438276   116.62596371    30.52102446
 C     20  19  18     2.879534343709   111.95836419    67.93370603
 C     21  20  19     2.877077245491   109.62395047    60.28632193
 C     22  21  20     2.876017330879   108.89324102   300.35292684
 C     23  22  21     2.883774471885   111.46247485    58.26514586
 C     18  17  16     3.574048651960    97.50734898    80.69453435
 C     25  18  17     2.893063510903   120.24368522    88.34915251
 C     26  25  18     2.886295915322   114.04175289    83.60219948
 C     27  26  25     2.879030050372   110.80442848    52.92383201
 C     28  27  26     2.877919881079   109.29783313   301.51806411
 C     29  28  27     2.875267903509   110.36457766    61.05469165
 C      2   1   3     3.463574761895    84.25660132   185.89633807
 O     31   2   1     2.179476426771   176.06602292    60.10758757
 H      4   3   2     2.068863089904   106.08737759   148.01745245
 H      5   4   3     2.062731162511   111.07060755   302.79669950
 H      5   4   3     2.069765746169   107.42581432   186.54392658
 H      6   5   4     2.067302383878   109.64664600   301.72223909
 H      6   5   4     2.065322963072   110.09001243   182.46562165
 H      7   6   5     2.063154382575   110.21864878   179.80264471
 H      7   6   5     2.066304346479   109.68380636    61.11669562
 H      8   7   6     2.082016795430   108.78344221   298.23692658
 H      8   7   6     2.062663446502   110.46699123   180.05337088
 H      9   8   7     2.065025568877   108.69886141   182.58668408
 H      9   8   7     2.068781314133   109.54452403    64.92176134
 H     10   3   2     2.079826485347   101.06032675    88.06810469
 H     11  10   3     2.067872725386   110.25976772   317.83516426
 H     11  10   3     2.069430028467   107.37714562   201.80309508
 H     12  11  10     2.060689520688   110.59517491   293.48355917
 H     12  11  10     2.065770550787   109.03250802   175.05547455
 H     13  12  11     2.063280362665   109.84406441   180.28859032
 H     13  12  11     2.065682561398   109.81467221    61.80016807
 H     14  13  12     2.063631952736   109.68527913   300.55036411
 H     14  13  12     2.062786527987   110.35968385   181.88438082
 H     15  14  13     2.085047016714   108.80698494   182.71657952
 H     15  14  13     2.068335110074   109.14880230    64.65431930
 H     16   3   2     2.070108644260   110.63337617   201.50951302
 H     16   3   2     2.060166635595   108.19131841    83.19110687
 H     17  16   3     2.061032279202   109.06504660   287.32284155
 H     17  16   3     2.070564109346   111.26273521   167.99746804
 H     19  18  17     2.067943944165   106.11502689   271.70186564
 H     20  19  18     2.062458887082   111.02913139   303.12279174
 H     20  19  18     2.069928770053   107.44429720   186.86686747
 H     21  20  19     2.067203975636   109.69283316   301.40675988
 H     21  20  19     2.065060082993   110.04565924   182.22281516
 H     22  21  20     2.062946017972   110.23887106   179.70389107
 H     22  21  20     2.066048804225   109.72317892    60.93489942
 H     23  22  21     2.081825974346   108.32239639   298.24743066
 H     23  22  21     2.062935295270   110.57359428   180.29489628
 H     24  23  22     2.066048189354   109.07611880   181.87553509
 H     24  23  22     2.069108551299   109.23472750    64.53549105
 H     25  18  17     2.079680019044   100.64445922   332.01314018
 H     26  25  18     2.067726403450   110.25034686   318.92940146
 H     26  25  18     2.069307520515   107.33540819   202.92659083
 H     27  26  25     2.061066638302   110.69642934   292.75903741
 H     27  26  25     2.065653687933   108.96549360   174.41496487
 H     28  27  26     2.063138551525   109.84349029   180.41782074
 H     28  27  26     2.065338694269   109.87513406    61.85056206
 H     29  28  27     2.063649579939   109.33665886   300.85115117
 H     29  28  27     2.062803136001   110.44166377   182.39120161
 H     30  29  28     2.083245488781   109.32806259   181.53950695
 H     30  29  28     2.068207777273   108.88660614    63.71358590

---------------------
BASIS SET INFORMATION
---------------------
There are 5 groups of distinct atoms

 Group   1 Type H   : 4s1p contracted to 2s1p pattern {31/1}
 Group   2 Type Rh  : 7s7p6d1f contracted to 6s4p3d1f pattern {211111/4111/411/1}
 Group   3 Type P   : 10s7p1d contracted to 4s3p1d pattern {5311/511/1}
 Group   4 Type C   : 7s4p1d contracted to 3s2p1d pattern {511/31/1}
 Group   5 Type O   : 7s4p1d contracted to 3s2p1d pattern {511/31/1}

Atom   0H    basis set group =>   1
Atom   1Rh   basis set group =>   2
Atom   2P    basis set group =>   3
Atom   3C    basis set group =>   4
Atom   4C    basis set group =>   4
Atom   5C    basis set group =>   4
Atom   6C    basis set group =>   4
Atom   7C    basis set group =>   4
Atom   8C    basis set group =>   4
Atom   9C    basis set group =>   4
Atom  10C    basis set group =>   4
Atom  11C    basis set group =>   4
Atom  12C    basis set group =>   4
Atom  13C    basis set group =>   4
Atom  14C    basis set group =>   4
Atom  15C    basis set group =>   4
Atom  16C    basis set group =>   4
Atom  17P    basis set group =>   3
Atom  18C    basis set group =>   4
Atom  19C    basis set group =>   4
Atom  20C    basis set group =>   4
Atom  21C    basis set group =>   4
Atom  22C    basis set group =>   4
Atom  23C    basis set group =>   4
Atom  24C    basis set group =>   4
Atom  25C    basis set group =>   4
Atom  26C    basis set group =>   4
Atom  27C    basis set group =>   4
Atom  28C    basis set group =>   4
Atom  29C    basis set group =>   4
Atom  30C    basis set group =>   4
Atom  31O    basis set group =>   5
Atom  32H    basis set group =>   1
Atom  33H    basis set group =>   1
Atom  34H    basis set group =>   1
Atom  35H    basis set group =>   1
Atom  36H    basis set group =>   1
Atom  37H    basis set group =>   1
Atom  38H    basis set group =>   1
Atom  39H    basis set group =>   1
Atom  40H    basis set group =>   1
Atom  41H    basis set group =>   1
Atom  42H    basis set group =>   1
Atom  43H    basis set group =>   1
Atom  44H    basis set group =>   1
Atom  45H    basis set group =>   1
Atom  46H    basis set group =>   1
Atom  47H    basis set group =>   1
Atom  48H    basis set group =>   1
Atom  49H    basis set group =>   1
Atom  50H    basis set group =>   1
Atom  51H    basis set group =>   1
Atom  52H    basis set group =>   1
Atom  53H    basis set group =>   1
Atom  54H    basis set group =>   1
Atom  55H    basis set group =>   1
Atom  56H    basis set group =>   1
Atom  57H    basis set group =>   1
Atom  58H    basis set group =>   1
Atom  59H    basis set group =>   1
Atom  60H    basis set group =>   1
Atom  61H    basis set group =>   1
Atom  62H    basis set group =>   1
Atom  63H    basis set group =>   1
Atom  64H    basis set group =>   1
Atom  65H    basis set group =>   1
Atom  66H    basis set group =>   1
Atom  67H    basis set group =>   1
Atom  68H    basis set group =>   1
Atom  69H    basis set group =>   1
Atom  70H    basis set group =>   1
Atom  71H    basis set group =>   1
Atom  72H    basis set group =>   1
Atom  73H    basis set group =>   1
Atom  74H    basis set group =>   1
Atom  75H    basis set group =>   1
Atom  76H    basis set group =>   1
Atom  77H    basis set group =>   1
Atom  78H    basis set group =>   1
Atom  79H    basis set group =>   1
---------------------------------
AUXILIARY/J BASIS SET INFORMATION
---------------------------------
There are 5 groups of distinct atoms

 Group   1 Type H   : 5s2p1d contracted to 3s1p1d pattern {311/2/1}
 Group   2 Type Rh  : 11s5p5d3f3g contracted to 8s5p5d2f3g pattern {41111111/11111/11111/21/111}
 Group   3 Type P   : 14s5p5d2f1g contracted to 8s4p3d1f1g pattern {71111111/2111/311/2/1}
 Group   4 Type C   : 12s5p4d2f1g contracted to 6s4p3d1f1g pattern {711111/2111/211/2/1}
 Group   5 Type O   : 12s5p4d2f1g contracted to 6s4p3d1f1g pattern {711111/2111/211/2/1}

Atom   0H    basis set group =>   1
Atom   1Rh   basis set group =>   2
Atom   2P    basis set group =>   3
Atom   3C    basis set group =>   4
Atom   4C    basis set group =>   4
Atom   5C    basis set group =>   4
Atom   6C    basis set group =>   4
Atom   7C    basis set group =>   4
Atom   8C    basis set group =>   4
Atom   9C    basis set group =>   4
Atom  10C    basis set group =>   4
Atom  11C    basis set group =>   4
Atom  12C    basis set group =>   4
Atom  13C    basis set group =>   4
Atom  14C    basis set group =>   4
Atom  15C    basis set group =>   4
Atom  16C    basis set group =>   4
Atom  17P    basis set group =>   3
Atom  18C    basis set group =>   4
Atom  19C    basis set group =>   4
Atom  20C    basis set group =>   4
Atom  21C    basis set group =>   4
Atom  22C    basis set group =>   4
Atom  23C    basis set group =>   4
Atom  24C    basis set group =>   4
Atom  25C    basis set group =>   4
Atom  26C    basis set group =>   4
Atom  27C    basis set group =>   4
Atom  28C    basis set group =>   4
Atom  29C    basis set group =>   4
Atom  30C    basis set group =>   4
Atom  31O    basis set group =>   5
Atom  32H    basis set group =>   1
Atom  33H    basis set group =>   1
Atom  34H    basis set group =>   1
Atom  35H    basis set group =>   1
Atom  36H    basis set group =>   1
Atom  37H    basis set group =>   1
Atom  38H    basis set group =>   1
Atom  39H    basis set group =>   1
Atom  40H    basis set group =>   1
Atom  41H    basis set group =>   1
Atom  42H    basis set group =>   1
Atom  43H    basis set group =>   1
Atom  44H    basis set group =>   1
Atom  45H    basis set group =>   1
Atom  46H    basis set group =>   1
Atom  47H    basis set group =>   1
Atom  48H    basis set group =>   1
Atom  49H    basis set group =>   1
Atom  50H    basis set group =>   1
Atom  51H    basis set group =>   1
Atom  52H    basis set group =>   1
Atom  53H    basis set group =>   1
Atom  54H    basis set group =>   1
Atom  55H    basis set group =>   1
Atom  56H    basis set group =>   1
Atom  57H    basis set group =>   1
Atom  58H    basis set group =>   1
Atom  59H    basis set group =>   1
Atom  60H    basis set group =>   1
Atom  61H    basis set group =>   1
Atom  62H    basis set group =>   1
Atom  63H    basis set group =>   1
Atom  64H    basis set group =>   1
Atom  65H    basis set group =>   1
Atom  66H    basis set group =>   1
Atom  67H    basis set group =>   1
Atom  68H    basis set group =>   1
Atom  69H    basis set group =>   1
Atom  70H    basis set group =>   1
Atom  71H    basis set group =>   1
Atom  72H    basis set group =>   1
Atom  73H    basis set group =>   1
Atom  74H    basis set group =>   1
Atom  75H    basis set group =>   1
Atom  76H    basis set group =>   1
Atom  77H    basis set group =>   1
Atom  78H    basis set group =>   1
Atom  79H    basis set group =>   1
-------------------------
ECP PARAMETER INFORMATION
-------------------------

 Group 1, Type Rh ECP Def2-ECP (replacing 28 core electrons, lmax=3)

Atom   1Rh   ECP group =>   1

--------------------------------------------------------------------------
WARNING: No preset parameters were found for the device that Open MPI
detected:

  Local host:            eu-g9-014-2
  Device name:           mlx5_0
  Device vendor ID:      0x02c9
  Device vendor part ID: 4123

Default device parameters will be used, which may result in lower
performance.  You can edit any of the files specified by the
btl_openib_device_param_files MCA parameter to set values for your
device.

NOTE: You can turn off this warning by setting the MCA parameter
      btl_openib_warn_no_device_params_found to 0.
--------------------------------------------------------------------------
--------------------------------------------------------------------------
WARNING: There is at least non-excluded one OpenFabrics device found,
but there are no active ports detected (or Open MPI was unable to use
them).  This is most certainly not what you wanted.  Check your
cables, subnet manager configuration, etc.  The openib BTL will be
ignored for this job.

  Local host: eu-g9-014-2
--------------------------------------------------------------------------


           ************************************************************
           *        Program running with 10 parallel MPI-processes    *
           *              working on a common directory               *
           ************************************************************
------------------------------------------------------------------------------
                           ORCA GTO INTEGRAL CALCULATION
                           -- RI-GTO INTEGRALS CHOSEN --
------------------------------------------------------------------------------

                         BASIS SET STATISTICS AND STARTUP INFO

Gaussian basis set:
 # of primitive gaussian shells          ...  638
 # of primitive gaussian functions       ... 1152
 # of contracted shells                  ...  345
 # of contracted basis functions         ...  713
 Highest angular momentum                ...    3
 Maximum contraction depth               ...    5
Auxiliary gaussian basis set:
 # of primitive gaussian shells          ... 1145
 # of primitive gaussian functions       ... 2997
 # of contracted shells                  ...  722
 # of contracted aux-basis functions     ... 2102
 Highest angular momentum                ...    4
 Maximum contraction depth               ...    7
Ratio of auxiliary to basis functions    ...  2.95
Integral package used                  ... LIBINT
 One Electron integrals                  
   ECP integrals                         ... done
 Ordering auxiliary basis shells         ... done
 Integral threshhold             Thresh  ...  2.500e-11
 Primitive cut-off               TCut    ...  2.500e-12
 Pre-screening matrix                    ... done
 Shell pair data                         ... 
 Ordering of the shell pairs             ... done (   0.006 sec) 42853 of 59685 pairs
 Determination of significant pairs      ... done (   0.000 sec)
 Creation of shell pair data             ... done (   0.003 sec)
 Storage of shell pair data              ... done (   0.007 sec)
 Shell pair data done in (   0.017 sec)
 Computing two index integrals           ... done
 Cholesky decomposition of the V-matrix  ... done


Timings:
 Total evaluation time                   ...   1.572 sec (  0.026 min)
 One electron matrix time                ...   1.121 sec (  0.019 min) = 71.3%
 Schwartz matrix evaluation time         ...   0.172 sec (  0.003 min) = 11.0%
 Two index repulsion integral time       ...   0.078 sec (  0.001 min) =  4.9%
 Cholesky decomposition of V             ...   0.162 sec (  0.003 min) = 10.3%
 Three index repulsion integral time     ...   0.000 sec (  0.000 min) =  0.0%

--------------------------------------------------------------------------
WARNING: No preset parameters were found for the device that Open MPI
detected:

  Local host:            eu-g9-014-2
  Device name:           mlx5_0
  Device vendor ID:      0x02c9
  Device vendor part ID: 4123

Default device parameters will be used, which may result in lower
performance.  You can edit any of the files specified by the
btl_openib_device_param_files MCA parameter to set values for your
device.

[...]
 200:      3037.99   18.125309  ( -1.496957  -0.581290  -3.942909)
 201:      3038.11    7.717213  ( -1.673575  -2.054784  -0.833200)
 202:      3038.88   35.235708  ( -3.593450   3.181870   3.492640)
 203:      3039.50   45.309602  ( -1.208496  -5.651248   3.451455)
 204:      3040.61   40.877811  (  4.587953  -2.958437  -3.328085)
 205:      3040.73   26.210779  (  3.437103   3.538720   1.369145)
 206:      3047.21   41.967741  ( -1.960514  -6.140461   0.647193)
 207:      3047.62   24.816256  (  1.358962   4.657929  -1.128352)
 208:      3052.58   14.677275  (  3.636218  -1.174311   0.276016)
 209:      3060.58    8.773386  (  1.363247  -0.356982   2.605284)
 210:      3063.43    1.260629  ( -1.092920   0.087650   0.241811)
 211:      3063.67   33.531542  ( -0.830718  -5.221143   2.362438)
 212:      3065.71   22.729066  (  0.770696   4.666111  -0.602078)
 213:      3066.79   16.215089  (  1.639186   3.259626   1.703818)
 214:      3068.56   11.863777  (  2.519424   1.408175   1.879713)
 215:      3071.75   16.422216  ( -2.619293  -0.090447  -3.090847)
 216:      3083.25   14.854312  ( -0.820721   1.786810   3.314821)
 217:      3083.92   26.576575  ( -2.184771  -1.060500   4.547383)
 218:      3089.19   22.969997  (  4.690341   0.793755  -0.583653)
 219:      3091.85    7.301374  (  1.982287  -1.824628   0.206505)
 220:      3103.09   25.626113  ( -0.507444   2.106668   4.574993)
 221:      3103.24   42.495069  ( -3.919520   0.651452   5.167983)
 222:      3104.06    3.241552  (  1.244894  -0.861032   0.974891)
 223:      3104.37   58.115336  ( -2.369785   6.579733  -3.034232)
 224:      3104.70   21.882855  ( -3.610720   2.688279   1.272287)
 225:      3107.25   16.102415  ( -3.846345   0.120352   1.137349)
 226:      3108.06   41.269617  (  0.560610   2.452314  -5.911133)
 227:      3108.33    9.749590  ( -0.875888   2.096962   2.141299)
 228:      3108.96   39.356939  (  1.055808   5.873803   1.934076)
 229:      3109.81   52.220760  ( -6.169986  -3.518195   1.332045)
 230:      3111.45   30.307902  (  4.499384   3.120559   0.570577)
 231:      3113.02   18.262414  ( -0.119601   3.654461  -2.212018)
 232:      3113.71   18.001195  ( -1.457951   1.142380   3.817138)
 233:      3118.80   17.946973  ( -4.008263  -0.210600  -1.355155)
 234:      3120.05   18.194125  (  0.973685  -1.651906   3.810154)
 235:      3120.39   40.296003  (  6.104174  -1.612964  -0.658338)
 236:      3121.48   18.385470  (  3.063402   0.939787   2.849183)
 237:      3122.54   43.238386  (  3.447218  -2.009775  -5.226460)
 238:      3137.51    0.531511  ( -0.486552   0.483333  -0.247319)
 239:      3149.47    7.682814  ( -1.300510   2.098088   1.260760)

The first frequency considered to be a vibration is 6
The total number of vibrations considered is 234


--------------------------
THERMOCHEMISTRY AT 298.15K
--------------------------

Temperature         ... 298.15 K
Pressure            ... 1.00 atm
Total Mass          ... 554.55 AMU

Throughout the following assumptions are being made:
  (1) The electronic state is orbitally nondegenerate
  (2) There are no thermally accessible electronically excited states
  (3) Hindered rotations indicated by low frequency modes are not
      treated as such but are treated as vibrations and this may
      cause some error
  (4) All equations used are the standard statistical mechanics
      equations for an ideal gas
  (5) All vibrations are strictly harmonic

freq.      22.56  E(vib)   ...       0.56 
freq.      25.06  E(vib)   ...       0.56 
freq.      41.87  E(vib)   ...       0.53 
freq.      46.75  E(vib)   ...       0.53 
freq.      50.23  E(vib)   ...       0.52 
freq.      52.37  E(vib)   ...       0.52 
freq.      62.08  E(vib)   ...       0.51 
freq.      72.61  E(vib)   ...       0.49 
freq.      77.30  E(vib)   ...       0.49 
freq.      83.95  E(vib)   ...       0.48 
freq.      90.95  E(vib)   ...       0.47 
freq.     105.85  E(vib)   ...       0.45 
freq.     112.29  E(vib)   ...       0.45 
freq.     126.60  E(vib)   ...       0.43 
freq.     133.55  E(vib)   ...       0.42 
freq.     148.75  E(vib)   ...       0.41 
freq.     161.80  E(vib)   ...       0.39 
freq.     163.69  E(vib)   ...       0.39 
freq.     170.18  E(vib)   ...       0.38 
freq.     183.60  E(vib)   ...       0.37 
freq.     183.95  E(vib)   ...       0.37 
freq.     204.32  E(vib)   ...       0.35 
freq.     213.60  E(vib)   ...       0.34 
freq.     231.14  E(vib)   ...       0.32 
freq.     258.83  E(vib)   ...       0.30 
freq.     273.35  E(vib)   ...       0.29 
freq.     280.16  E(vib)   ...       0.28 
freq.     284.42  E(vib)   ...       0.28 
freq.     304.00  E(vib)   ...       0.26 
freq.     305.79  E(vib)   ...       0.26 
freq.     321.70  E(vib)   ...       0.25 
freq.     347.04  E(vib)   ...       0.23 
freq.     355.65  E(vib)   ...       0.22 
freq.     363.51  E(vib)   ...       0.22 
freq.     370.89  E(vib)   ...       0.21 
freq.     385.71  E(vib)   ...       0.20 
freq.     388.77  E(vib)   ...       0.20 
freq.     409.26  E(vib)   ...       0.19 
freq.     414.14  E(vib)   ...       0.19 
freq.     434.52  E(vib)   ...       0.17 
freq.     440.53  E(vib)   ...       0.17 
freq.     442.65  E(vib)   ...       0.17 
freq.     448.32  E(vib)   ...       0.17 
freq.     456.77  E(vib)   ...       0.16 
freq.     460.85  E(vib)   ...       0.16 
freq.     474.39  E(vib)   ...       0.15 
freq.     477.84  E(vib)   ...       0.15 
freq.     483.27  E(vib)   ...       0.15 
freq.     483.76  E(vib)   ...       0.15 
freq.     487.66  E(vib)   ...       0.15 
freq.     524.94  E(vib)   ...       0.13 
freq.     558.32  E(vib)   ...       0.12 
freq.     565.30  E(vib)   ...       0.11 
freq.     571.18  E(vib)   ...       0.11 
freq.     599.49  E(vib)   ...       0.10 
freq.     608.15  E(vib)   ...       0.10 
freq.     646.13  E(vib)   ...       0.09 
freq.     650.15  E(vib)   ...       0.08 
freq.     673.57  E(vib)   ...       0.08 
freq.     690.88  E(vib)   ...       0.07 
freq.     704.56  E(vib)   ...       0.07 
freq.     709.35  E(vib)   ...       0.07 
freq.     724.57  E(vib)   ...       0.06 
freq.     787.57  E(vib)   ...       0.05 
freq.     789.25  E(vib)   ...       0.05 
freq.     793.66  E(vib)   ...       0.05 
freq.     794.61  E(vib)   ...       0.05 
freq.     817.87  E(vib)   ...       0.05 
freq.     834.17  E(vib)   ...       0.04 
freq.     835.49  E(vib)   ...       0.04 
freq.     838.64  E(vib)   ...       0.04 
freq.     839.41  E(vib)   ...       0.04 
freq.     860.67  E(vib)   ...       0.04 
freq.     863.86  E(vib)   ...       0.04 
freq.     867.99  E(vib)   ...       0.04 
freq.     868.71  E(vib)   ...       0.04 
freq.     884.08  E(vib)   ...       0.04 
freq.     894.17  E(vib)   ...       0.03 
freq.     894.76  E(vib)   ...       0.03 
freq.     896.20  E(vib)   ...       0.03 
freq.     898.84  E(vib)   ...       0.03 
freq.     909.99  E(vib)   ...       0.03 
freq.     910.36  E(vib)   ...       0.03 
freq.     913.40  E(vib)   ...       0.03 
freq.     913.96  E(vib)   ...       0.03 
freq.     932.13  E(vib)   ...       0.03 
freq.     932.44  E(vib)   ...       0.03 
freq.     936.89  E(vib)   ...       0.03 
freq.     939.33  E(vib)   ...       0.03 
freq.    1021.88  E(vib)   ...       0.02 
freq.    1023.85  E(vib)   ...       0.02 
freq.    1026.46  E(vib)   ...       0.02 
freq.    1029.47  E(vib)   ...       0.02 
freq.    1029.68  E(vib)   ...       0.02 
freq.    1057.22  E(vib)   ...       0.02 
freq.    1057.96  E(vib)   ...       0.02 
freq.    1061.15  E(vib)   ...       0.02 
freq.    1061.46  E(vib)   ...       0.02 
freq.    1065.13  E(vib)   ...       0.02 
freq.    1065.51  E(vib)   ...       0.02 
freq.    1069.83  E(vib)   ...       0.02 
freq.    1071.77  E(vib)   ...       0.02 
freq.    1092.59  E(vib)   ...       0.02 
freq.    1103.86  E(vib)   ...       0.02 
freq.    1104.64  E(vib)   ...       0.02 
freq.    1110.09  E(vib)   ...       0.02 
freq.    1110.43  E(vib)   ...       0.02 
freq.    1112.82  E(vib)   ...       0.01 
freq.    1112.91  E(vib)   ...       0.01 
freq.    1114.08  E(vib)   ...       0.01 
freq.    1116.10  E(vib)   ...       0.01 
freq.    1133.19  E(vib)   ...       0.01 
freq.    1134.29  E(vib)   ...       0.01 
freq.    1135.28  E(vib)   ...       0.01 
freq.    1135.80  E(vib)   ...       0.01 
freq.    1153.66  E(vib)   ...       0.01 
freq.    1170.15  E(vib)   ...       0.01 
freq.    1171.18  E(vib)   ...       0.01 
freq.    1172.54  E(vib)   ...       0.01 
freq.    1176.75  E(vib)   ...       0.01 
freq.    1221.01  E(vib)   ...       0.01 
freq.    1222.75  E(vib)   ...       0.01 
freq.    1231.14  E(vib)   ...       0.01 
freq.    1231.78  E(vib)   ...       0.01 
freq.    1248.47  E(vib)   ...       0.01 
freq.    1282.27  E(vib)   ...       0.01 
freq.    1283.12  E(vib)   ...       0.01 
freq.    1283.77  E(vib)   ...       0.01 
freq.    1284.66  E(vib)   ...       0.01 
freq.    1287.73  E(vib)   ...       0.01 
freq.    1289.61  E(vib)   ...       0.01 
freq.    1293.09  E(vib)   ...       0.01 
freq.    1295.15  E(vib)   ...       0.01 
freq.    1297.10  E(vib)   ...       0.01 
freq.    1300.13  E(vib)   ...       0.01 
freq.    1300.70  E(vib)   ...       0.01 
freq.    1302.52  E(vib)   ...       0.01 
freq.    1303.90  E(vib)   ...       0.01 
freq.    1315.79  E(vib)   ...       0.01 
freq.    1316.11  E(vib)   ...       0.01 
freq.    1319.09  E(vib)   ...       0.01 
freq.    1319.59  E(vib)   ...       0.01 
freq.    1335.93  E(vib)   ...       0.01 
freq.    1336.74  E(vib)   ...       0.01 
freq.    1339.23  E(vib)   ...       0.01 
freq.    1339.43  E(vib)   ...       0.01 
freq.    1372.42  E(vib)   ...       0.01 
freq.    1372.53  E(vib)   ...       0.01 
freq.    1373.83  E(vib)   ...       0.01 
freq.    1374.25  E(vib)   ...       0.01 
freq.    1377.63  E(vib)   ...       0.01 
freq.    1378.18  E(vib)   ...       0.01 
freq.    1380.87  E(vib)   ...       0.01 
freq.    1381.41  E(vib)   ...       0.01 
freq.    1385.21  E(vib)   ...       0.00 
freq.    1385.79  E(vib)   ...       0.00 
freq.    1387.47  E(vib)   ...       0.00 
freq.    1389.22  E(vib)   ...       0.00 
freq.    1391.88  E(vib)   ...       0.00 
freq.    1392.48  E(vib)   ...       0.00 
freq.    1394.31  E(vib)   ...       0.00 
freq.    1395.90  E(vib)   ...       0.00 
freq.    1426.34  E(vib)   ...       0.00 
freq.    1434.80  E(vib)   ...       0.00 
freq.    1437.33  E(vib)   ...       0.00 
freq.    1440.60  E(vib)   ...       0.00 
freq.    1442.33  E(vib)   ...       0.00 
freq.    1445.92  E(vib)   ...       0.00 
freq.    1450.96  E(vib)   ...       0.00 
freq.    1452.81  E(vib)   ...       0.00 
freq.    1453.47  E(vib)   ...       0.00 
freq.    1453.68  E(vib)   ...       0.00 
freq.    1454.62  E(vib)   ...       0.00 
freq.    1455.25  E(vib)   ...       0.00 
freq.    1456.85  E(vib)   ...       0.00 
freq.    1458.56  E(vib)   ...       0.00 
freq.    1458.87  E(vib)   ...       0.00 
freq.    1462.01  E(vib)   ...       0.00 
freq.    1465.37  E(vib)   ...       0.00 
freq.    1467.16  E(vib)   ...       0.00 
freq.    1474.76  E(vib)   ...       0.00 
freq.    1476.71  E(vib)   ...       0.00 
freq.    1478.58  E(vib)   ...       0.00 
freq.    1480.48  E(vib)   ...       0.00 
freq.    1939.59  E(vib)   ...       0.00 
freq.    2101.26  E(vib)   ...       0.00 
freq.    3017.19  E(vib)   ...       0.00 
freq.    3025.06  E(vib)   ...       0.00 
freq.    3026.09  E(vib)   ...       0.00 
freq.    3027.79  E(vib)   ...       0.00 
freq.    3032.36  E(vib)   ...       0.00 
freq.    3032.66  E(vib)   ...       0.00 
freq.    3034.28  E(vib)   ...       0.00 
freq.    3037.31  E(vib)   ...       0.00 
freq.    3037.99  E(vib)   ...       0.00 
freq.    3038.11  E(vib)   ...       0.00 
freq.    3038.88  E(vib)   ...       0.00 
freq.    3039.50  E(vib)   ...       0.00 
freq.    3040.61  E(vib)   ...       0.00 
freq.    3040.73  E(vib)   ...       0.00 
freq.    3047.21  E(vib)   ...       0.00 
freq.    3047.62  E(vib)   ...       0.00 
freq.    3052.58  E(vib)   ...       0.00 
freq.    3060.58  E(vib)   ...       0.00 
freq.    3063.43  E(vib)   ...       0.00 
freq.    3063.67  E(vib)   ...       0.00 
freq.    3065.71  E(vib)   ...       0.00 
freq.    3066.79  E(vib)   ...       0.00 
freq.    3068.56  E(vib)   ...       0.00 
freq.    3071.75  E(vib)   ...       0.00 
freq.    3083.25  E(vib)   ...       0.00 
freq.    3083.92  E(vib)   ...       0.00 
freq.    3089.19  E(vib)   ...       0.00 
freq.    3091.85  E(vib)   ...       0.00 
freq.    3103.09  E(vib)   ...       0.00 
freq.    3103.24  E(vib)   ...       0.00 
freq.    3104.06  E(vib)   ...       0.00 
freq.    3104.37  E(vib)   ...       0.00 
freq.    3104.70  E(vib)   ...       0.00 
freq.    3107.25  E(vib)   ...       0.00 
freq.    3108.06  E(vib)   ...       0.00 
freq.    3108.33  E(vib)   ...       0.00 
freq.    3108.96  E(vib)   ...       0.00 
freq.    3109.81  E(vib)   ...       0.00 
freq.    3111.45  E(vib)   ...       0.00 
freq.    3113.02  E(vib)   ...       0.00 
freq.    3113.71  E(vib)   ...       0.00 
freq.    3118.80  E(vib)   ...       0.00 
freq.    3120.05  E(vib)   ...       0.00 
freq.    3120.39  E(vib)   ...       0.00 
freq.    3121.48  E(vib)   ...       0.00 
freq.    3122.54  E(vib)   ...       0.00 
freq.    3137.51  E(vib)   ...       0.00 
freq.    3149.47  E(vib)   ...       0.00 

------------
INNER ENERGY
------------

The inner energy is: U= E(el) + E(ZPE) + E(vib) + E(rot) + E(trans)
    E(el)   - is the total energy from the electronic structure calculation
              = E(kin-el) + E(nuc-el) + E(el-el) + E(nuc-nuc)
    E(ZPE)  - the the zero temperature vibrational energy from the frequency calculation
    E(vib)  - the the finite temperature correction to E(ZPE) due to population
              of excited vibrational states
    E(rot)  - is the rotational thermal energy
    E(trans)- is the translational thermal energy

Summary of contributions to the inner energy U:
Electronic energy                ...  -1924.51223170 Eh
Zero point energy                ...      0.72284663 Eh     453.59 kcal/mol
Thermal vibrational correction   ...      0.03042103 Eh      19.09 kcal/mol
Thermal rotational correction    ...      0.00141627 Eh       0.89 kcal/mol
Thermal translational correction ...      0.00141627 Eh       0.89 kcal/mol
-----------------------------------------------------------------------
Total thermal energy                  -1923.75613150 Eh


Summary of corrections to the electronic energy:
(perhaps to be used in another calculation)
Total thermal correction                  0.03325358 Eh      20.87 kcal/mol
Non-thermal (ZPE) correction              0.72284663 Eh     453.59 kcal/mol
-----------------------------------------------------------------------
Total correction                          0.75610021 Eh     474.46 kcal/mol


--------
ENTHALPY
--------

The enthalpy is H = U + kB*T
                kB is Boltzmann's constant
Total free energy                 ...  -1923.75613150 Eh 
Thermal Enthalpy correction       ...      0.00094421 Eh       0.59 kcal/mol
-----------------------------------------------------------------------
Total Enthalpy                    ...  -1923.75518729 Eh


Note: Only C1 symmetry has been detected, increase convergence thresholds 
      if your molecule has a higher symmetry. Symmetry factor of 1.0 is   
      used for the rotational entropy correction. 
 

Note: Rotational entropy computed according to Herzberg 
Infrared and Raman Spectra, Chapter V,1, Van Nostrand Reinhold, 1945 
Point Group:  C1, Symmetry Number:   1  
Rotational constants in cm-1:     0.005535     0.003600     0.002907 

Vibrational entropy computed according to the QRRHO of S. Grimme
Chem.Eur.J. 2012 18 9955


-------
ENTROPY
-------

The entropy contributions are T*S = T*(S(el)+S(vib)+S(rot)+S(trans))
     S(el)   - electronic entropy
     S(vib)  - vibrational entropy
     S(rot)  - rotational entropy
     S(trans)- translational entropy
The entropies will be listed as mutliplied by the temperature to get
units of energy

Electronic entropy                ...      0.00000000 Eh      0.00 kcal/mol
Vibrational entropy               ...      0.05338380 Eh     33.50 kcal/mol
Rotational entropy                ...      0.01737773 Eh     10.90 kcal/mol
Translational entropy             ...      0.02129729 Eh     13.36 kcal/mol
-----------------------------------------------------------------------
Final entropy term                ...      0.09205881 Eh     57.77 kcal/mol

In case the symmetry of your molecule has not been determined correctly
or in case you have a reason to use a different symmetry number we print 
out the resulting rotational entropy values for sn=1,12 :
 --------------------------------------------------------
|  sn= 1 | S(rot)=       0.01737773 Eh     10.90 kcal/mol|
|  sn= 2 | S(rot)=       0.01672327 Eh     10.49 kcal/mol|
|  sn= 3 | S(rot)=       0.01634044 Eh     10.25 kcal/mol|
|  sn= 4 | S(rot)=       0.01606881 Eh     10.08 kcal/mol|
|  sn= 5 | S(rot)=       0.01585813 Eh      9.95 kcal/mol|
|  sn= 6 | S(rot)=       0.01568598 Eh      9.84 kcal/mol|
|  sn= 7 | S(rot)=       0.01554044 Eh      9.75 kcal/mol|
|  sn= 8 | S(rot)=       0.01541436 Eh      9.67 kcal/mol|
|  sn= 9 | S(rot)=       0.01530315 Eh      9.60 kcal/mol|
|  sn=10 | S(rot)=       0.01520367 Eh      9.54 kcal/mol|
|  sn=11 | S(rot)=       0.01511368 Eh      9.48 kcal/mol|
|  sn=12 | S(rot)=       0.01503153 Eh      9.43 kcal/mol|
 --------------------------------------------------------


-------------------
GIBBS FREE ENERGY
-------------------

The Gibbs free energy is G = H - T*S

Total enthalpy                    ...  -1923.75518729 Eh 
Total entropy correction          ...     -0.09205881 Eh    -57.77 kcal/mol
-----------------------------------------------------------------------
Final Gibbs free energy         ...  -1923.84724610 Eh

For completeness - the Gibbs free energy minus the electronic energy
G-E(el)                           ...      0.66498560 Eh    417.28 kcal/mol

--------------------------------------------------------------------------
WARNING: No preset parameters were found for the device that Open MPI
detected:

  Local host:            eu-g9-014-2
  Device name:           mlx5_0
  Device vendor ID:      0x02c9
  Device vendor part ID: 4123

Default device parameters will be used, which may result in lower
performance.  You can edit any of the files specified by the
btl_openib_device_param_files MCA parameter to set values for your
device.

NOTE: You can turn off this warning by setting the MCA parameter
      btl_openib_warn_no_device_params_found to 0.
--------------------------------------------------------------------------
--------------------------------------------------------------------------
WARNING: There is at least non-excluded one OpenFabrics device found,
but there are no active ports detected (or Open MPI was unable to use
them).  This is most certainly not what you wanted.  Check your
cables, subnet manager configuration, etc.  The openib BTL will be
ignored for this job.

  Local host: eu-g9-014-2
--------------------------------------------------------------------------

Timings for individual modules:

Sum of individual times         ...    22997.942 sec (= 383.299 min)
GTO integral calculation        ...       35.218 sec (=   0.587 min)   0.2 %
SCF iterations                  ...     2662.600 sec (=  44.377 min)  11.6 %
SCF Gradient evaluation         ...      946.330 sec (=  15.772 min)   4.1 %
Geometry relaxation             ...       16.808 sec (=   0.280 min)   0.1 %
Analytical frequency calculation...    19336.987 sec (= 322.283 min)  84.1 %
                             ****ORCA TERMINATED NORMALLY****
TOTAL RUN TIME: 0 days 6 hours 23 minutes 34 seconds 335 msec
