
                                 *****************
                                 * O   R   C   A *
                                 *****************

                                            #,                                       
                                            ###                                      
                                            ####                                     
                                            #####                                    
                                            ######                                   
                                           ########,                                 
                                     ,,################,,,,,                         
                               ,,#################################,,                 
                          ,,##########################################,,             
                       ,#########################################, ''#####,          
                    ,#############################################,,   '####,        
                  ,##################################################,,,,####,       
                ,###########''''           ''''###############################       
              ,#####''   ,,,,##########,,,,          '''####'''          '####       
            ,##' ,,,,###########################,,,                        '##       
           ' ,,###''''                  '''############,,,                           
         ,,##''                                '''############,,,,        ,,,,,,###''
      ,#''                                            '''#######################'''  
     '                                                          ''''####''''         
             ,#######,   #######,   ,#######,      ##                                
            ,#'     '#,  ##    ##  ,#'     '#,    #''#        ,####,   ,####,        
            ##       ##  ##   ,#'  ##            #'  '#       #'       #'  '#        
            ##       ##  #######   ##           ,######,      #####,   #    #        
            '#,     ,#'  ##    ##  '#,     ,#' ,#      #,     #,   #   #,  ,#        
             '#######'   ##     ##  '#######'  #'      '#     '####' # '####'        



                #########################################################
                #                        -***-                          #
                #          Department of theory and spectroscopy        #
                #                                                       #
                #                      Frank Neese                      #
                #                                                       #
                #     Directorship, Architecture, Infrastructure        #
                #                    SHARK, DRIVERS                     #
                #        Core code/Algorithms in most modules           #
                #                                                       #
                #        Max Planck Institute fuer Kohlenforschung      #
                #                Kaiser Wilhelm Platz 1                 #
                #                 D-45470 Muelheim/Ruhr                 #
                #                      Germany                          #
                #                                                       #
                #                  All rights reserved                  #
                #                        -***-                          #
                #########################################################


                         Program Version 6.0.1  -  RELEASE   -


 With contributions from (in alphabetic order):
[Max-Planck-Institut fuer Kohlenforschung]                               
  Daniel Aravena         : Magnetic Suceptibility                        
  Michael Atanasov       : Ab Initio Ligand Field Theory (pilot matlab implementation)
  Alexander A. Auer      : GIAO ZORA, VPT2 properties, NMR spectrum      
  Ute Becker             : All parallelization in ORCA, NUMFREQ, NUMCALC 
  Giovanni Bistoni       : ED, misc. LED, open-shell LED, HFLD           
  Martin Brehm           : Molecular dynamics                            
  Dmytro Bykov           : pre 5.0 version of the SCF Hessian            
  Marcos Casanova-Páez   : Triplet and SCS-CIS(D). UHF-(DLPNO)-IP/EA/STEOM-CCSD. UHF-CVS-IP/STEOM-CCSD   
  Vijay G. Chilkuri      : MRCI spin determinant printing, contributions to CSF-ICE 
  Pauline Colinet        : FMM embedding                                 
  Dipayan Datta          : RHF DLPNO-CCSD density                        
  Achintya Kumar Dutta   : EOM-CC, STEOM-CC                              
  Nicolas Foglia         : Exact transition moments, OPA infrastructure, MCD improvements    
  Dmitry Ganyushin       : Spin-Orbit,Spin-Spin,Magnetic field MRCI      
  Miquel Garcia-Rates    : C-PCM and meta-GGA Hessian, CCSD/C-PCM, Gaussian charge scheme 
  Tiago L. C. Gouveia    : GS-ROHF, GS-ROCIS                             
  Yang Guo               : DLPNO-NEVPT2, F12-NEVPT2, CIM, IAO-localization        
  Andreas Hansen         : Spin unrestricted coupled pair/coupled cluster methods 
  Ingolf Harden          : AUTO-CI MPn and infrastructure                
  Benjamin Helmich-Paris : MC-RPA, TRAH-(SCF,CASSCF), AVAS, COSX integrals, SCF dyn. polar. 
  Lee Huntington         : MR-EOM, pCC                                   
  Robert Izsak           : Overlap fitted RIJCOSX, COSX-SCS-MP3, EOM     
  Riya Kayal             : Wick's Theorem for AUTO-CI, AUTO-CI UHF-CCSDT 
  Emily Kempfer          : AUTO-CI, RHF CISDT and CCSDT                  
  Christian Kollmar      : KDIIS, OOCD, Brueckner-CCSD(T), CCSD density, CASPT2, CASPT2-K, improved NEVPT2 
  Axel Koslowski         : Symmetry handling                             
  Simone Kossmann        : meta-GGA functionals, TD-DFT gradient, OOMP2, (MP2 Hessian; deprecated post 5.0) 
  Lucas Lang             : DCDCAS                                        
  Marvin Lechner         : AUTO-CI (C++ implementation), FIC-MRCC        
  Spencer Leger          : CASSCF response                               
  Dagmar Lenk            : GEPOL surface, SMD, ORCA-2-JSON               
  Dimitrios Liakos       : Extrapolation schemes; Compound Job, initial MDCI parallelization 
  Dimitrios Manganas     : Further ROCIS development; embedding schemes. LFT, Crystal Embedding 
  Dimitrios Pantazis     : SARC Basis sets                               
  Anastasios Papadopoulos: AUTO-CI, single reference methods and gradients 
  Taras Petrenko         : pre 6.0 DFT Hessian and TD-DFT gradient, (ASA, deprecated), ECA, 1-Electron XAS/XES, NRVS 
  Peter Pinski           : DLPNO-MP2, DLPNO-MP2 Gradient                 
  Christoph Reimann      : Effective Core Potentials                     
  Marius Retegan         : Local ZFS, SOC                                
  Christoph Riplinger    : Optimizer, TS searches, QM/MM, DLPNO-CCSD(T), (RO)-DLPNO pert. Triples 
  Michael Roemelt        : Original ROCIS implementation                 
  Masaaki Saitow         : Open-shell DLPNO-CCSD energy and density      
  Barbara Sandhoefer     : DKH picture change effects                    
  Kantharuban Sivalingam : CASSCF convergence/infrastructure, NEVPT2 and variants, FIC-MRCI 
  Bernardo de Souza      : ESD, SOC TD-DFT                               
  Georgi L. Stoychev     : AutoAux, RI-MP2 NMR, DLPNO-MP2 response, X2C  
  Van Anh Tran           : RI-MP2 g-tensors                              
  Willem Van den Heuvel  : Paramagnetic NMR                              
  Zikuan Wang            : NOTCH, Electric field optimization            
  Frank Wennmohs         : Technical directorship and infrastructure     
  Hang Xu                : AUTO-CI-Response properties                   
                                                                         
[FACCTs GmbH]                                                            
  Markus Bursch, Miquel Garcia-Rates, Christoph Riplinger, Bernardo de Souza, Georgi L. Stoychev 
                                                                 
  APM, Basis sets (HGBS, AHGBS, def-TZVP (Ac-Lr), def2-XVPD (La-Lu)), CI-OPT, improved COSX, DLPNO-Multilevel,           
  DOCKER, DRACO, updates on ESD, GOAT, IRC, LR-CPCM, MBIS, meta-GGA TD-DFT gradient, ML-optimized integration grids, 
  MM, NACMEs, nearIR, NEB, NEB-TS, NL-DFT gradient (VV10), 2- and 3-layer-ONIOM, interface openCOSMO-RS, QMMM,   
  Crystal-QMMM, SF, symmetry and pop. for TD-DFT, r2SCAN hybrids, SOLVATOR                                   
                                                                         
[Other institutions]                                                     
  V. Asgeirsson          : NEB                                           
  Christoph Bannwarth    : sTDA-DFT, sTD-DFT, PBEh-3c, B97-3c, D3        
  Sebastian Ehlert       : rSCAN, r2SCAN, r2SCAN-3c, D4, dhf basis sets  
  Marvin Friede          : D4 for Fr, Ra, Ac-Lr                          
  Lars Goerigk           : TD-DFT with DH, B97 family of functionals     
  Stefan Grimme          : VdW corrections, initial TS optimization, DFT functionals, gCP, sTDA/sTD-DF 
  Waldemar Hujo          : DFT-NL                                        
  H. Jonsson             : NEB                                           
  Holger Kruse           : gCP                                           
  Marcel Mueller         : wB97X-3c, vDZP basis set                      
  Hagen Neugebauer       : wr2SCAN                                       
  Tobias Risthaus        : range-separated hybrid DFT                    
  Lukas Wittmann         : regularized MP2, r2SCAN double-hybrids, wr2SCAN        
                                                                         
We gratefully acknowledge several colleagues who have allowed us to      
interface, adapt or use parts of their codes:                            
  Ed Valeev, F. Pavosevic, A. Kumar             : LibInt (2-el integral package), F12 methods 
  Garnet Chan, S. Sharma, J. Yang, R. Olivares  : DMRG                   
  Ulf Ekstrom                                   : XCFun DFT Library      
  Mihaly Kallay                                 : mrcc  (arbitrary order and MRCC methods)
  Frank Weinhold                                : gennbo (NPA and NBO analysis)           
  Simon Mueller                                 : openCOSMO-RS                            
  Christopher J. Cramer and Donald G. Truhlar   : smd solvation model                     
  S Lehtola, MJT Oliveira, MAL Marques          : LibXC Library                           
  Liviu Ungur et al                             : ANISO software                          


 Your calculation uses the libint2 library for the computation of 2-el integrals
 For citations please refer to: http://libint.valeyev.net

 Your ORCA version has been built with support for libXC version: 6.2.2
 For citations please refer to: https://libxc.gitlab.io

 This ORCA versions uses:
   CBLAS   interface :  Fast vector & matrix operations
   LAPACKE interface :  Fast linear algebra routines
   SCALAPACK package :  Parallel linear algebra routines
   Shared memory     :  Shared parallel matrices
   BLAS/LAPACK       :  OpenBLAS 0.3.27  USE64BITINT DYNAMIC_ARCH NO_AFFINITY Zen SINGLE_THREADED
        Core in use  :  Zen
   Copyright (c) 2011-2014, The OpenBLAS Project


NOTE: MaxCore=3036 MB was set to SCF,MP2,MDCI,CIPSI,MRCI and CIS
      => If you want to overwrite this, your respective input block should be placed after the MaxCore statement


***************************************
The coordinates will be read from file: xtbopt.xyz
***************************************


Your calculation utilizes the atom-pairwise dispersion correction
with the Becke-Johnson damping scheme (D3BJ)


Warning: RI is on but no J-basis has been assigned. Assigning Def2/J (nothing to worry about!)
================================================================================

cite the ECPs for Rh [Def2-ECP] as follows:
Ce-Yb(ecp-28): M. Dolg, H. Stoll, H.Preuss, J. Chem. Phys., 1989, 90, 1730-1734.
Y-Cd(ecp-28), Hf-Hg(ecp-46): D. Andrae,U. Haeussermann, M. Dolg, H. Stoll, H. Preuss, Theor. Chim. Acta, 1990, 77, 123-141.
In-Sb(ecp-28), Tl-Bi(ecp-46): B. Metz, H. Stoll, M. Dolg, J. Chem. Phys., 2000, 113, 2563-2569.
Te-Xe(ecp-28), Po-Rn(ecp-46): K. A. Peterson, D. Figgen, E. Goll, H. Stoll, M. Dolg, J. Chem. Phys., 2003, 119, 11113-11123.
Rb(ecp-28), Cs(ecp-46): T. Leininger, A. Nicklass, W. Kuechle, H. Stoll, M. Dolg, A. Bergner, Chem. Phys. Lett., 1996, 255, 274-280.
Sr(ecp-28), Ba(ecp-46): M. Kaupp, P. V. Schleyer, H. Stoll and H. Preuss, J. Chem. Phys., 1991, 94, 1360-1366.
La(ecp-46): M. Dolg, H. Stoll, A. Savin, H. Preuss, Theor. Chim. Acta, 1989, 75, 173-194.
Lu(ecp-28): X. Cao, M. Dolg, J. Chem. Phys., 2001, 115, 7348-7355.

ECP parameters for Rh [Def2-ECP] have been obtained from:
TURBOMOLE (7.0.2)

----- Orbital basis set information -----
Your calculation utilizes the basis: def2-SVP
   F. Weigend and R. Ahlrichs, Phys. Chem. Chem. Phys. 7, 3297 (2005).

The basis set includes element-specific modifications.

Your calculation utilizes the basis: def2-TZVP
   F. Weigend and R. Ahlrichs, Phys. Chem. Chem. Phys. 7, 3297 (2005).

----- AuxJ basis set information -----
Your calculation utilizes the auxiliary basis: def2/J
   F. Weigend, Phys. Chem. Chem. Phys. 8, 1057 (2006).

================================================================================
                                        WARNINGS
                       Please study these warnings very carefully!
================================================================================


WARNING: Geometry Optimization
  ===> : Switching off AutoStart
         For restart on a previous wavefunction, please use MOREAD

================================================================================
                                       INPUT FILE
================================================================================
NAME = /cluster/scratch/rueppf/orcajob__35520377-hfCg/dppBz_tolman.inp
|  1> ! PBE0 def2-SVP RIJDX D3BJ opt freq
|  2> %pal nprocs 10 end
|  3> %maxcore 3036
|  4> %basis
|  5> newgto Rh "def2-TZVP" end
|  6> end
|  7> *xyzfile 0 1 xtbopt.xyz
|  8> 
|  9>                          ****END OF INPUT****
================================================================================

                       *****************************
                       * Geometry Optimization Run *
                       *****************************

Geometry optimization settings:
Update method            Update   .... BFGS
Choice of coordinates    CoordSys .... (2022) Redundant Internals
Initial Hessian          InHess   .... Almloef's Model
Max. no of cycles        MaxIter  .... 180

Convergence Tolerances:
Energy Change            TolE     ....  5.0000e-06 Eh
Max. Gradient            TolMAXG  ....  3.0000e-04 Eh/bohr
RMS Gradient             TolRMSG  ....  1.0000e-04 Eh/bohr
Max. Displacement        TolMAXD  ....  4.0000e-03 bohr
RMS Displacement         TolRMSD  ....  2.0000e-03 bohr
Strict Convergence                .... False

------------------------------------------------------------------------------
                        ORCA OPTIMIZATION COORDINATE SETUP
------------------------------------------------------------------------------

The optimization will be done in redundant internal coordinates (2022)
Making redundant internal coordinates   ...  (2022 redundants) done
Evaluating the initial hessian          ...  (Almloef) done
Evaluating the coordinates              ...  done
Calculating the B-matrix                .... done
Calculating the G-matrix                .... done
Diagonalizing the G-matrix              .... done
Small eigenvalue found = 3.262e-03
Small eigenvalue found = 4.126e-03
Small eigenvalue found = 5.064e-03
Small eigenvalue found = 8.152e-03
Small eigenvalue found = 1.105e-02
Small eigenvalue found = 1.252e-02
Small eigenvalue found = 1.430e-02
Small eigenvalue found = 2.199e-02
The first mode is                       ....  165
The number of degrees of freedom        ....  174

    -----------------------------------------------------------------
                    Redundant Internal Coordinates


    -----------------------------------------------------------------
         Definition                    Initial Value    Approx d2E/dq
    -----------------------------------------------------------------
      1. B(C   1,C   0)                  1.3832         0.640544   
      2. B(C   2,C   1)                  1.3895         0.625992   
      3. B(C   3,C   2)                  1.3959         0.611488   
      4. B(C   4,C   3)                  1.3898         0.625299   
      5. B(C   5,C   4)                  1.3830         0.641166   
      6. B(C   5,C   0)                  1.3875         0.630557   
      7. B(P   6,C   2)                  1.8349         0.409609   
      8. B(H   7,C   1)                  1.0809         0.372334   
      9. B(H   8,C   5)                  1.0803         0.373200   
     10. B(H   9,C   0)                  1.0803         0.373215   
     11. B(H  10,C   4)                  1.0808         0.372427   
     12. B(P  11,C   3)                  1.8343         0.410635   
     13. B(C  12,P  11)                  1.8180         0.435885   
     14. B(C  13,P   6)                  1.8207         0.431590   
     15. B(C  14,C  13)                  1.3901         0.624597   
     16. B(C  15,C  14)                  1.3838         0.639165   
     17. B(C  16,C  15)                  1.3855         0.635207   
     18. B(C  17,C  16)                  1.3860         0.634017   
     19. B(C  18,C  17)                  1.3818         0.643844   
     20. B(C  18,C  13)                  1.3910         0.622400   
     21. B(H  19,C  18)                  1.0857         0.365845   
     22. B(H  20,C  16)                  1.0802         0.373350   
     23. B(H  21,C  17)                  1.0802         0.373353   
     24. B(H  22,C  14)                  1.0821         0.370766   
     25. B(H  23,C  15)                  1.0807         0.372679   
     26. B(C  24,C  12)                  1.3906         0.623361   
     27. B(C  25,C  12)                  1.3932         0.617473   
     28. B(C  26,C  25)                  1.3814         0.644930   
     29. B(C  27,C  26)                  1.3866         0.632738   
     30. B(C  28,C  27)                  1.3850         0.636441   
     31. B(C  28,C  24)                  1.3834         0.640145   
     32. B(H  29,C  28)                  1.0806         0.372794   
     33. B(H  30,C  24)                  1.0818         0.371081   
     34. B(H  31,C  25)                  1.0828         0.369726   
     35. B(H  32,C  26)                  1.0802         0.373255   
     36. B(H  33,C  27)                  1.0800         0.373512   
     37. B(C  34,P   6)                  1.8187         0.434752   
     38. B(C  35,C  34)                  1.3936         0.616517   
     39. B(C  36,C  35)                  1.3810         0.645843   
     40. B(C  37,C  36)                  1.3869         0.632015   
     41. B(C  38,C  37)                  1.3845         0.637611   
     42. B(C  39,C  38)                  1.3842         0.638230   
     43. B(C  39,C  34)                  1.3895         0.625835   
     44. B(H  40,C  39)                  1.0817         0.371279   
     45. B(H  41,C  35)                  1.0824         0.370295   
     46. B(H  42,C  36)                  1.0802         0.373280   
     47. B(H  43,C  37)                  1.0801         0.373424   
     48. B(H  44,C  38)                  1.0807         0.372677   
     49. B(C  45,P  11)                  1.8258         0.423523   
     50. B(C  46,C  45)                  1.3930         0.618061   
     51. B(C  47,C  46)                  1.3814         0.644945   
     52. B(C  48,C  47)                  1.3863         0.633232   
     53. B(C  49,C  48)                  1.3854         0.635547   
     54. B(C  50,C  49)                  1.3838         0.639084   
     55. B(C  50,C  45)                  1.3893         0.626337   
     56. B(H  51,C  46)                  1.0969         0.351088   
     57. B(H  52,C  47)                  1.0801         0.373405   
     58. B(H  53,C  48)                  1.0801         0.373465   
     59. B(H  54,C  49)                  1.0806         0.372799   
     60. B(H  55,C  50)                  1.0814         0.371717   
     61. B(Rh 56,P  11)                  2.2476         0.910055   
     62. B(Rh 56,P   6)                  2.2319         0.964144   
     63. B(C  57,Rh 56)                  1.8379         1.219546   
     64. B(O  58,C  57)                  1.1504         1.349491   
     65. B(H  59,Rh 56)                  1.5375         0.704136   
     66. A(C   1,C   0,C   5)          120.2575         0.437952   
     67. A(C   5,C   0,H   9)          119.8934         0.356073   
     68. A(C   1,C   0,H   9)          119.8491         0.357025   
     69. A(C   0,C   1,C   2)          119.8859         0.437379   
     70. A(C   0,C   1,H   7)          120.2503         0.356881   
     71. A(C   2,C   1,H   7)          119.8636         0.355492   
     72. A(C   3,C   2,P   6)          116.1846         0.428791   
     73. A(C   1,C   2,P   6)          123.9575         0.430599   
     74. A(C   1,C   2,C   3)          119.8544         0.433738   
     75. A(C   4,C   3,P  11)          123.4910         0.430707   
     76. A(C   2,C   3,C   4)          119.9057         0.433651   
     77. A(C   2,C   3,P  11)          116.5534         0.428984   
     78. A(C   3,C   4,H  10)          119.8821         0.355440   
     79. A(C   3,C   4,C   5)          119.8802         0.437368   
     80. A(C   5,C   4,H  10)          120.2376         0.356955   
     81. A(C   0,C   5,C   4)          120.2148         0.438029   
     82. A(C   0,C   5,H   8)          119.9196         0.356071   
     83. A(C   4,C   5,H   8)          119.8647         0.357081   
     84. A(C   2,P   6,C  34)          101.8774         0.430268   
     85. A(C   2,P   6,C  13)          100.9030         0.429705   
     86. A(C   2,P   6,Rh 56)          110.7566         0.550687   
     87. A(C  13,P   6,Rh 56)          124.4624         0.556182   
     88. A(C  13,P   6,C  34)          102.9679         0.434330   
     89. A(C  34,P   6,Rh 56)          113.0668         0.556954   
     90. A(C  12,P  11,Rh 56)          128.2943         0.551151   
     91. A(C   3,P  11,Rh 56)          110.3582         0.544951   
     92. A(C  45,P  11,Rh 56)          109.6150         0.548151   
     93. A(C   3,P  11,C  45)           98.6766         0.428445   
     94. A(C  12,P  11,C  45)          103.1044         0.433061   
     95. A(C   3,P  11,C  12)          102.7336         0.430663   
     96. A(C  24,C  12,C  25)          119.5282         0.434169   
     97. A(P  11,C  12,C  25)          117.9169         0.434367   
     98. A(P  11,C  12,C  24)          122.1762         0.435110   
     99. A(C  14,C  13,C  18)          119.7795         0.434946   
    100. A(P   6,C  13,C  18)          115.5787         0.434215   
    101. A(P   6,C  13,C  14)          124.6347         0.434490   
    102. A(C  13,C  14,C  15)          119.7170         0.437033   
    103. A(C  15,C  14,H  22)          120.1711         0.356495   
    104. A(C  13,C  14,H  22)          120.1041         0.355103   
    105. A(C  14,C  15,C  16)          120.2860         0.438363   
    106. A(C  16,C  15,H  23)          119.9508         0.356431   
    107. A(C  14,C  15,H  23)          119.7630         0.356807   
    108. A(C  15,C  16,H  20)          119.8532         0.356539   
    109. A(C  15,C  16,C  17)          120.1522         0.437724   
    110. A(C  17,C  16,H  20)          119.9921         0.356426   
    111. A(C  16,C  17,C  18)          119.7180         0.438791   
    112. A(C  18,C  17,H  21)          120.2147         0.357359   
    113. A(C  16,C  17,H  21)          120.0658         0.356426   
    114. A(C  17,C  18,H  19)          121.1383         0.356128   
    115. A(C  13,C  18,H  19)          118.5064         0.354088   
    116. A(C  13,C  18,C  17)          120.3432         0.437330   
    117. A(C  28,C  24,H  30)          120.1265         0.356639   
    118. A(C  12,C  24,H  30)          119.8480         0.355035   
    119. A(C  12,C  24,C  28)          120.0252         0.436998   
    120. A(C  26,C  25,H  31)          120.5911         0.356869   
    121. A(C  12,C  25,H  31)          119.1929         0.354244   
    122. A(C  12,C  25,C  26)          120.2160         0.436837   
    123. A(C  27,C  26,H  32)          120.0426         0.356288   
    124. A(C  25,C  26,H  32)          119.9785         0.357445   
    125. A(C  25,C  26,C  27)          119.9781         0.438765   
    126. A(C  28,C  27,H  33)          119.9755         0.356683   
    127. A(C  26,C  27,H  33)          119.9898         0.356330   
    128. A(C  26,C  27,C  28)          120.0319         0.437718   
    129. A(C  27,C  28,H  29)          120.0132         0.356567   
    130. A(C  24,C  28,H  29)          119.8128         0.356918   
    131. A(C  24,C  28,C  27)          120.1737         0.438637   
    132. A(P   6,C  34,C  39)          123.3425         0.435217   
    133. A(P   6,C  34,C  35)          116.7626         0.434043   
    134. A(C  35,C  34,C  39)          119.6579         0.434358   
    135. A(C  34,C  35,C  36)          120.1929         0.436826   
    136. A(C  36,C  35,H  41)          120.8333         0.357048   
    137. A(C  34,C  35,H  41)          118.9738         0.354243   
    138. A(C  35,C  36,C  37)          119.9444         0.438787   
    139. A(C  37,C  36,H  42)          120.0373         0.356223   
    140. A(C  35,C  36,H  42)          120.0167         0.357536   
    141. A(C  36,C  37,C  38)          120.0420         0.437772   
    142. A(C  38,C  37,H  43)          119.9477         0.356780   
    143. A(C  36,C  37,H  43)          120.0087         0.356247   
    144. A(C  39,C  38,H  44)          119.7449         0.356718   
    145. A(C  37,C  38,H  44)          120.0119         0.356659   
    146. A(C  37,C  38,C  39)          120.2429         0.438546   
    147. A(C  38,C  39,H  40)          120.0165         0.356490   
    148. A(C  34,C  39,H  40)          120.0845         0.355306   
    149. A(C  34,C  39,C  38)          119.8987         0.437074   
    150. A(C  46,C  45,C  50)          119.7051         0.434616   
    151. A(P  11,C  45,C  50)          125.6895         0.433234   
    152. A(P  11,C  45,C  46)          114.5829         0.432200   
    153. A(C  47,C  46,H  51)          121.3028         0.353753   
    154. A(C  45,C  46,H  51)          118.2498         0.351213   
    155. A(C  45,C  46,C  47)          120.4309         0.436914   
    156. A(C  48,C  47,H  52)          120.1044         0.356360   
    157. A(C  46,C  47,H  52)          120.2477         0.357471   
    158. A(C  46,C  47,C  48)          119.6462         0.438829   
    159. A(C  49,C  48,H  53)          119.8740         0.356591   
    160. A(C  47,C  48,H  53)          119.9777         0.356370   
    161. A(C  47,C  48,C  49)          120.1463         0.437668   
    162. A(C  50,C  49,H  54)          119.7175         0.356819   
    163. A(C  48,C  49,H  54)          119.9189         0.356483   
    164. A(C  48,C  49,C  50)          120.3634         0.438395   
    165. A(C  49,C  50,H  55)          120.0184         0.356642   
    166. A(C  45,C  50,H  55)          120.2621         0.355425   
    167. A(C  45,C  50,C  49)          119.7064         0.437243   
    168. A(C  57,Rh 56,H  59)           88.2075         0.589758   
    169. A(P  11,Rh 56,H  59)          171.7735         0.586365   
    170. A(P   6,Rh 56,H  59)           91.2990         0.592907   
    171. A(P  11,Rh 56,C  57)           96.3367         0.709951   
    172. A(P   6,Rh 56,C  57)          172.9273         0.718118   
    173. A(P   6,Rh 56,P  11)           85.0292         0.713856   
    174. L(Rh 56,C  57,O  58,P  11, 2) 176.2150         0.638312   
    175. L(Rh 56,C  57,O  58,P  11, 1) 178.1565         0.638312   
    176. D(C   2,C   1,C   0,C   5)     -0.0024         0.028510   
    177. D(H   7,C   1,C   0,H   9)      0.1378         0.028510   
    178. D(H   7,C   1,C   0,C   5)   -179.8499         0.028510   
    179. D(C   2,C   1,C   0,H   9)    179.9853         0.028510   
    180. D(C   3,C   2,C   1,H   7)    179.5256         0.027148   
    181. D(P   6,C   2,C   1,H   7)     -1.1802         0.027148   
    182. D(P   6,C   2,C   1,C   0)    178.9717         0.027148   
    183. D(C   3,C   2,C   1,C   0)     -0.3226         0.027148   
    184. D(P  11,C   3,C   2,C   1)   -177.1452         0.025832   
    185. D(P  11,C   3,C   2,P   6)      3.5071         0.025832   
    186. D(C   4,C   3,C   2,C   1)      0.3742         0.025832   
    187. D(C   4,C   3,C   2,P   6)   -178.9734         0.025832   
    188. D(C   5,C   4,C   3,P  11)    177.2390         0.027084   
    189. D(C   5,C   4,C   3,C   2)     -0.1003         0.027084   
    190. D(H  10,C   4,C   3,C   2)    179.8918         0.027084   
    191. D(H  10,C   4,C   3,P  11)     -2.7689         0.027084   
    192. D(H   8,C   5,C   0,H   9)     -0.0537         0.027571   
    193. D(H   8,C   5,C   4,H  10)      0.1266         0.028569   
    194. D(H   8,C   5,C   4,C   3)   -179.8813         0.028569   
    195. D(C   0,C   5,C   4,C   3)     -0.2255         0.028569   
    196. D(C   4,C   5,C   0,H   9)   -179.7093         0.027571   
    197. D(C   0,C   5,C   4,H  10)    179.7824         0.028569   
    198. D(H   8,C   5,C   0,C   1)    179.9340         0.027571   
    199. D(C   4,C   5,C   0,C   1)      0.2784         0.027571   
    200. D(Rh 56,P   6,C   2,C   1)    170.7199         0.003774   
    201. D(C  34,P   6,C   2,C   3)    110.5603         0.003774   
    202. D(C  34,P   6,C   2,C   1)    -68.7576         0.003774   
    203. D(C  13,P   6,C   2,C   1)     37.1474         0.003774   
    204. D(C  13,P   6,C   2,C   3)   -143.5347         0.003774   
    205. D(C  12,P  11,C   3,C   4)     47.3559         0.003786   
    206. D(C  12,P  11,C   3,C   2)   -135.2224         0.003786   
    207. D(C  45,P  11,C   3,C   4)    -58.2856         0.003786   
    208. D(C  45,P  11,C   3,C   2)    119.1360         0.003786   
    209. D(Rh 56,P  11,C   3,C   2)      4.3749         0.003786   
    210. D(C  25,C  12,P  11,C  45)    -52.9402         0.004085   
    211. D(C  25,C  12,P  11,C   3)   -155.1446         0.004085   
    212. D(C  24,C  12,P  11,Rh 56)    -97.3045         0.004085   
    213. D(C  24,C  12,P  11,C  45)    134.1619         0.004085   
    214. D(C  24,C  12,P  11,C   3)     31.9574         0.004085   
    215. D(C  18,C  13,P   6,C  34)   -159.5196         0.004033   
    216. D(C  18,C  13,P   6,C   2)     95.4433         0.004033   
    217. D(C  14,C  13,P   6,Rh 56)    151.6765         0.004033   
    218. D(C  14,C  13,P   6,C  34)     21.4595         0.004033   
    219. D(C  14,C  13,P   6,C   2)    -83.5776         0.004033   
    220. D(H  22,C  14,C  13,C  18)    178.5124         0.027020   
    221. D(H  22,C  14,C  13,P   6)     -2.5052         0.027020   
    222. D(C  15,C  14,C  13,C  18)     -0.4675         0.027020   
    223. D(C  15,C  14,C  13,P   6)    178.5150         0.027020   
    224. D(H  23,C  15,C  14,H  22)      0.7237         0.028379   
    225. D(H  23,C  15,C  14,C  13)    179.7029         0.028379   
    226. D(C  16,C  15,C  14,H  22)   -179.0968         0.028379   
    227. D(C  16,C  15,C  14,C  13)     -0.1177         0.028379   
    228. D(H  20,C  16,C  15,H  23)      0.0877         0.028006   
    229. D(H  20,C  16,C  15,C  14)    179.9079         0.028006   
    230. D(C  17,C  16,C  15,H  23)   -179.3436         0.028006   
    231. D(C  17,C  16,C  15,C  14)      0.4766         0.028006   
    232. D(H  21,C  17,C  16,H  20)     -0.1290         0.027894   
    233. D(H  21,C  17,C  16,C  15)    179.3015         0.027894   
    234. D(C  18,C  17,C  16,H  20)   -179.6750         0.027894   
    235. D(C  18,C  17,C  16,C  15)     -0.2444         0.027894   
    236. D(H  19,C  18,C  13,P   6)      2.8813         0.026818   
    237. D(C  17,C  18,C  13,C  14)      0.7010         0.026818   
    238. D(C  17,C  18,C  13,P   6)   -178.3708         0.026818   
    239. D(H  19,C  18,C  17,H  21)     -1.1750         0.028825   
    240. D(H  19,C  18,C  17,C  16)    178.3702         0.028825   
    241. D(C  13,C  18,C  17,H  21)   -179.8895         0.028825   
    242. D(C  13,C  18,C  17,C  16)     -0.3443         0.028825   
    243. D(H  19,C  18,C  13,C  14)   -178.0469         0.026818   
    244. D(H  30,C  24,C  12,C  25)   -177.8570         0.026906   
    245. D(H  30,C  24,C  12,P  11)     -5.0699         0.026906   
    246. D(C  28,C  24,C  12,C  25)      2.3428         0.026906   
    247. D(C  28,C  24,C  12,P  11)    175.1299         0.026906   
    248. D(H  31,C  25,C  12,C  24)    177.6782         0.026370   
    249. D(C  26,C  25,C  12,C  24)     -2.4410         0.026370   
    250. D(C  26,C  25,C  12,P  11)   -175.5333         0.026370   
    251. D(H  31,C  25,C  12,P  11)      4.5858         0.026370   
    252. D(H  32,C  26,C  25,H  31)      0.5212         0.028929   
    253. D(H  32,C  26,C  25,C  12)   -179.3579         0.028929   
    254. D(C  27,C  26,C  25,H  31)   -179.1565         0.028929   
    255. D(C  27,C  26,C  25,C  12)      0.9643         0.028929   
    256. D(H  33,C  27,C  26,H  32)      0.3357         0.027774   
    257. D(H  33,C  27,C  26,C  25)   -179.9867         0.027774   
    258. D(C  28,C  27,C  26,H  32)   -179.0568         0.027774   
    259. D(C  28,C  27,C  26,C  25)      0.6207         0.027774   
    260. D(H  29,C  28,C  27,H  33)     -0.3310         0.028122   
    261. D(H  29,C  28,C  27,C  26)    179.0616         0.028122   
    262. D(C  24,C  28,C  27,H  33)    179.8917         0.028122   
    263. D(C  24,C  28,C  27,C  26)     -0.7157         0.028122   
    264. D(H  29,C  28,C  24,H  30)     -0.3536         0.028472   
    265. D(H  29,C  28,C  24,C  12)    179.4461         0.028472   
    266. D(C  27,C  28,C  24,H  30)    179.4242         0.028472   
    267. D(C  27,C  28,C  24,C  12)     -0.7762         0.028472   
    268. D(C  39,C  34,P   6,C  13)   -124.5444         0.004071   
    269. D(C  39,C  34,P   6,C   2)    -20.2576         0.004071   
    270. D(C  35,C  34,P   6,Rh 56)    -75.7401         0.004071   
    271. D(C  35,C  34,P   6,C  13)     61.0793         0.004071   
    272. D(C  35,C  34,P   6,C   2)    165.3661         0.004071   
    273. D(H  41,C  35,C  34,C  39)   -178.1521         0.026284   
    274. D(H  41,C  35,C  34,P   6)     -3.5578         0.026284   
    275. D(C  36,C  35,C  34,C  39)      1.7389         0.026284   
    276. D(C  36,C  35,C  34,P   6)    176.3332         0.026284   
    277. D(H  42,C  36,C  35,H  41)     -0.5520         0.029016   
    278. D(H  42,C  36,C  35,C  34)    179.5591         0.029016   
    279. D(C  37,C  36,C  35,H  41)    178.9902         0.029016   
    280. D(C  37,C  36,C  35,C  34)     -0.8987         0.029016   
    281. D(H  43,C  37,C  36,H  42)     -0.2055         0.027707   
    282. D(H  43,C  37,C  36,C  35)   -179.7476         0.027707   
    283. D(C  38,C  37,C  36,H  42)    179.3239         0.027707   
    284. D(C  38,C  37,C  36,C  35)     -0.2182         0.027707   
    285. D(H  44,C  38,C  37,H  43)      0.2210         0.028232   
    286. D(H  44,C  38,C  37,C  36)   -179.3087         0.028232   
    287. D(C  39,C  38,C  37,H  43)   -179.9797         0.028232   
    288. D(C  39,C  38,C  37,C  36)      0.4906         0.028232   
    289. D(H  40,C  39,C  38,H  44)     -0.0616         0.028291   
    290. D(H  40,C  39,C  38,C  37)   -179.8614         0.028291   
    291. D(C  34,C  39,C  38,H  44)   -179.8437         0.028291   
    292. D(C  34,C  39,C  38,C  37)      0.3564         0.028291   
    293. D(H  40,C  39,C  34,C  35)    178.7545         0.027134   
    294. D(H  40,C  39,C  34,P   6)      4.5334         0.027134   
    295. D(C  38,C  39,C  34,C  35)     -1.4635         0.027134   
    296. D(C  38,C  39,C  34,P   6)   -175.6846         0.027134   
    297. D(C  50,C  45,P  11,C  12)    -24.5515         0.003936   
    298. D(C  50,C  45,P  11,C   3)     80.7832         0.003936   
    299. D(C  46,C  45,P  11,Rh 56)     17.8623         0.003936   
    300. D(C  46,C  45,P  11,C  12)    157.1883         0.003936   
    301. D(C  46,C  45,P  11,C   3)    -97.4771         0.003936   
    302. D(C  47,C  46,C  45,P  11)    178.0695         0.026423   
    303. D(H  51,C  46,C  45,C  50)    178.2384         0.026423   
    304. D(H  51,C  46,C  45,P  11)     -3.3884         0.026423   
    305. D(C  47,C  46,C  45,C  50)     -0.3038         0.026423   
    306. D(H  52,C  47,C  46,H  51)      1.2405         0.028930   
    307. D(H  52,C  47,C  46,C  45)    179.7375         0.028930   
    308. D(C  48,C  47,C  46,H  51)   -178.2948         0.028930   
    309. D(C  48,C  47,C  46,C  45)      0.2022         0.028930   
    310. D(H  53,C  48,C  47,H  52)      0.1115         0.027821   
    311. D(H  53,C  48,C  47,C  46)    179.6475         0.027821   
    312. D(C  49,C  48,C  47,H  52)   -179.3754         0.027821   
    313. D(C  49,C  48,C  47,C  46)      0.1605         0.027821   
    314. D(H  54,C  49,C  48,H  53)     -0.0850         0.028038   
    315. D(H  54,C  49,C  48,C  47)    179.4025         0.028038   
    316. D(C  50,C  49,C  48,H  53)   -179.9109         0.028038   
    317. D(C  50,C  49,C  48,C  47)     -0.4234         0.028038   
    318. D(H  55,C  50,C  49,H  54)     -0.8179         0.028372   
    319. D(H  55,C  50,C  49,C  48)    179.0084         0.028372   
    320. D(C  45,C  50,C  49,H  54)   -179.5064         0.028372   
    321. D(C  45,C  50,C  49,C  48)      0.3199         0.028372   
    322. D(H  55,C  50,C  45,C  46)   -178.6433         0.027180   
    323. D(H  55,C  50,C  45,P  11)      3.1781         0.027180   
    324. D(C  49,C  50,C  45,C  46)      0.0420         0.027180   
    325. D(C  49,C  50,C  45,P  11)   -178.1366         0.027180   
    326. D(H  59,Rh 56,P  11,C   3)     55.7969         0.002600   
    327. D(C  57,Rh 56,P  11,C  45)     71.3965         0.002600   
    328. D(C  57,Rh 56,P  11,C  12)    -54.6239         0.002600   
    329. D(C  57,Rh 56,P  11,C   3)    179.0381         0.002600   
    330. D(P   6,Rh 56,P  11,C  45)   -115.5771         0.002600   
    331. D(P   6,Rh 56,P  11,C  12)    118.4024         0.002600   
    332. D(P   6,Rh 56,P  11,C   3)     -7.9356         0.002600   
    333. D(H  59,Rh 56,P   6,C   2)   -163.1108         0.002731   
    334. D(C  57,Rh 56,P   6,C  34)     -2.6365         0.002731   
    335. D(C  57,Rh 56,P   6,C  13)   -128.6583         0.002731   
    336. D(C  57,Rh 56,P   6,C   2)    110.9808         0.002731   
    337. D(P  11,Rh 56,P   6,C  34)   -104.1021         0.002731   
    338. D(P  11,Rh 56,P   6,C  13)    129.8761         0.002731   
    339. D(P  11,Rh 56,P   6,C   2)      9.5153         0.002731   
    -----------------------------------------------------------------

Number of atoms                         .... 60
Number of degrees of freedom            .... 339


         *************************************************************
         *                GEOMETRY OPTIMIZATION CYCLE   1            *
         *************************************************************
---------------------------------
CARTESIAN COORDINATES (ANGSTROEM)
---------------------------------
  C     -4.681223    1.724692   -1.046194
  C     -4.919268    0.584375   -0.300326
  C     -3.861090   -0.241374    0.058911
  C     -2.562619    0.079722   -0.340211
  C     -2.331678    1.227817   -1.088566
  C     -3.389654    2.047417   -1.437165
  P     -4.045213   -1.763346    1.067216
  H     -5.925786    0.331788    0.002130
  H     -3.210108    2.938750   -2.020499
  H     -5.504384    2.366128   -1.325360
  H     -1.325871    1.477008   -1.395920
  P     -1.246261   -1.114095    0.114193
  C      0.079172   -0.033472    0.731154
  C     -5.630422   -2.402428    0.439801
  C     -6.880751   -1.986531    0.882574
  C     -8.022956   -2.519883    0.311753
  C     -7.924271   -3.462751   -0.698631
  C     -6.679289   -3.885216   -1.137462
  C     -5.536602   -3.358284   -0.566453
  H     -4.550227   -3.691660   -0.874104
  H     -8.820423   -3.875566   -1.138234
  H     -6.604038   -4.628655   -1.917452
  H     -6.959915   -1.261120    1.681544
  H     -8.995337   -2.200656    0.658712
  C     -0.186284    1.167010    1.380936
  C      1.387851   -0.507765    0.672531
  C      2.420926    0.233999    1.211712
  C      2.154139    1.445371    1.831354
  C      0.851032    1.905782    1.921277
  H      0.641799    2.842541    2.417596
  H     -1.204879    1.522806    1.459774
  H      1.583229   -1.461475    0.198440
  H      3.435484   -0.132542    1.154933
  H      2.961747    2.025589    2.252797
  C     -4.494183   -1.083175    2.693109
  C     -5.014272   -1.978425    3.625978
  C     -5.308103   -1.554129    4.906894
  C     -5.067872   -0.238033    5.272402
  C     -4.529732    0.648777    4.355483
  C     -4.238642    0.230033    3.068644
  H     -3.816187    0.925393    2.355880
  H     -5.180788   -3.006202    3.330111
  H     -5.717795   -2.248740    5.625595
  H     -5.293493    0.093906    6.275173
  H     -4.332341    1.671293    4.644126
  C     -0.677437   -1.549353   -1.565297
  C     -1.220705   -2.726744   -2.074138
  C     -0.903834   -3.149037   -3.350625
  C     -0.035886   -2.396113   -4.126341
  C      0.512965   -1.228307   -3.622155
  C      0.193546   -0.799408   -2.345815
  H     -1.882383   -3.315377   -1.426928
  H     -1.323478   -4.064691   -3.740679
  H      0.220014   -2.724274   -5.123035
  H      1.196596   -0.649371   -4.226394
  H      0.637602    0.104447   -1.951868
  Rh    -2.139741   -2.925004    1.101173
  C     -0.555692   -3.823869    1.347886
  O      0.457907   -4.333667    1.537892
  H     -2.874255   -4.182377    1.594409

----------------------------
CARTESIAN COORDINATES (A.U.)
----------------------------
  NO LB      ZA    FRAG     MASS         X           Y           Z
   0 C     6.0000    0    12.011   -8.846230    3.259196   -1.977021
   1 C     6.0000    0    12.011   -9.296070    1.104308   -0.567535
   2 C     6.0000    0    12.011   -7.296402   -0.456130    0.111327
   3 C     6.0000    0    12.011   -4.842648    0.150653   -0.642906
   4 C     6.0000    0    12.011   -4.406232    2.320238   -2.057092
   5 C     6.0000    0    12.011   -6.405517    3.869057   -2.715848
   6 P    15.0000    0    30.974   -7.644346   -3.332241    2.016747
   7 H     1.0000    0     1.008  -11.198112    0.626989    0.004025
   8 H     1.0000    0     1.008   -6.066224    5.553433   -3.818189
   9 H     1.0000    0     1.008  -10.401778    4.471333   -2.504568
  10 H     1.0000    0     1.008   -2.505533    2.791140   -2.637906
  11 P    15.0000    0    30.974   -2.355091   -2.105335    0.215793
  12 C     6.0000    0    12.011    0.149613   -0.063254    1.381680
  13 C     6.0000    0    12.011  -10.639956   -4.539932    0.831103
  14 C     6.0000    0    12.011  -13.002736   -3.754000    1.667823
  15 C     6.0000    0    12.011  -15.161189   -4.761889    0.589128
  16 C     6.0000    0    12.011  -14.974703   -6.543651   -1.320222
  17 C     6.0000    0    12.011  -12.622027   -7.341995   -2.149491
  18 C     6.0000    0    12.011  -10.462662   -6.346238   -1.070440
  19 H     1.0000    0     1.008   -8.598682   -6.976227   -1.651817
  20 H     1.0000    0     1.008  -16.668184   -7.323759   -2.150951
  21 H     1.0000    0     1.008  -12.479823   -8.746891   -3.623459
  22 H     1.0000    0     1.008  -13.152333   -2.383171    3.177658
  23 H     1.0000    0     1.008  -16.998724   -4.158637    1.244786
  24 C     6.0000    0    12.011   -0.352027    2.205329    2.609590
  25 C     6.0000    0    12.011    2.622658   -0.959538    1.270900
  26 C     6.0000    0    12.011    4.574887    0.442194    2.289804
  27 C     6.0000    0    12.011    4.070733    2.731356    3.460757
  28 C     6.0000    0    12.011    1.608218    3.601406    3.630687
  29 H     1.0000    0     1.008    1.212824    5.371625    4.568593
  30 H     1.0000    0     1.008   -2.276892    2.877685    2.758574
  31 H     1.0000    0     1.008    2.991870   -2.761787    0.374997
  32 H     1.0000    0     1.008    6.492124   -0.250467    2.182507
  33 H     1.0000    0     1.008    5.596891    3.827809    4.257170
  34 C     6.0000    0    12.011   -8.492775   -2.046904    5.089238
  35 C     6.0000    0    12.011   -9.475600   -3.738681    6.852105
  36 C     6.0000    0    12.011  -10.030861   -2.936878    9.272685
  37 C     6.0000    0    12.011   -9.576890   -0.449817    9.963397
  38 C     6.0000    0    12.011   -8.559953    1.226011    8.230670
  39 C     6.0000    0    12.011   -8.009873    0.434699    5.798896
  40 H     1.0000    0     1.008   -7.211549    1.748740    4.451968
  41 H     1.0000    0     1.008   -9.790270   -5.680898    6.292998
  42 H     1.0000    0     1.008  -10.805067   -4.249504   10.630834
  43 H     1.0000    0     1.008  -10.003252    0.177457   11.858359
  44 H     1.0000    0     1.008   -8.186938    3.158285    8.776126
  45 C     6.0000    0    12.011   -1.280170   -2.927852   -2.957982
  46 C     6.0000    0    12.011   -2.306799   -5.152799   -3.919553
  47 C     6.0000    0    12.011   -1.707999   -5.950817   -6.331763
  48 C     6.0000    0    12.011   -0.067815   -4.527997   -7.797655
  49 C     6.0000    0    12.011    0.969363   -2.321164   -6.844882
  50 C     6.0000    0    12.011    0.365748   -1.510661   -4.432948
  51 H     1.0000    0     1.008   -3.557188   -6.265155   -2.696503
  52 H     1.0000    0     1.008   -2.501012   -7.681153   -7.068858
  53 H     1.0000    0     1.008    0.415766   -5.148131   -9.681133
  54 H     1.0000    0     1.008    2.261238   -1.227134   -7.986728
  55 H     1.0000    0     1.008    1.204894    0.197376   -3.688496
  56 Rh   17.0000*   0   102.910   -4.043525   -5.527456    2.080915
  57 C     6.0000    0    12.011   -1.050106   -7.226065    2.547135
  58 O     8.0000    0    15.999    0.865319   -8.189443    2.906195
  59 H     1.0000    0     1.008   -5.431555   -7.903546    3.012996
* core charge reduced due to ECP

--------------------------------
INTERNAL COORDINATES (ANGSTROEM)
--------------------------------
 C      0   0   0     0.000000000000     0.00000000     0.00000000
 C      1   0   0     1.383224228582     0.00000000     0.00000000
 C      2   1   0     1.389479645103   119.88593644     0.00000000
 C      3   2   1     1.395861045177   119.85444430   359.67744378
 C      4   3   2     1.389780964209   119.90570075     0.37422622
 C      5   4   3     1.382959976323   119.88021419   359.89973493
 P      3   2   1     1.834933385438   123.95750192   178.97166967
 H      2   1   3     1.080905835021   120.25032813   180.15245951
 H      6   5   4     1.080273290707   119.86473024   180.11868201
 H      1   2   3     1.080261977310   119.84912083   179.98530963
 H      5   4   3     1.080837276221   119.88214788   179.89184792
 P      4   3   2     1.834252270991   116.55335047   182.85475470
 C     12   4   3     1.818008983562   102.73361559   224.77757313
 C      7   3   2     1.820703943710   100.90298212    37.14744344
 C     14   7   3     1.390086953555   124.63467510   276.42244128
 C     15  14   7     1.383810771464   119.71696795   178.51495204
 C     16  15  14     1.385501820615   120.28597092   359.88232001
 C     17  16  15     1.386012124910   120.15224357     0.47662530
 C     18  17  16     1.381825538105   119.71798582   359.75556886
 H     19  18  17     1.085691423750   121.13829498   178.37024204
 H     17  16  15     1.080164094296   119.85320233   179.90794414
 H     18  17  16     1.080161524252   120.06579883   179.30152190
 H     15  14   7     1.082054190639   120.10406966   357.49480633
 H     16  15  14     1.080653492136   119.76298779   179.70289989
 C     13  12   4     1.390626025265   122.17623050    31.95741770
 C     13  12   4     1.393209464553   117.91694649   204.85536292
 C     26  13  12     1.381366746569   120.21597260   184.46667438
 C     27  26  13     1.386561991851   119.97808354     0.96434977
 C     25  13  12     1.383393974051   120.02519785   175.12986273
 H     29  25  13     1.080569176520   119.81275896   179.44609816
 H     25  13  12     1.081823294532   119.84798867   354.93009168
 H     26  13  12     1.082818762364   119.19286121     4.58583425
 H     27  26  13     1.080233001901   119.97848423   180.64208033
 H     28  27  26     1.080045588870   119.98983241   180.01325544
 C      7   3   2     1.818717155935   101.87736727   291.24242479
 C     35   7   3     1.393631268214   116.76257068   165.36609947
 C     36  35   7     1.380981332132   120.19286677   176.33321110
 C     37  36  35     1.386873021735   119.94439207   359.10132916
 C     38  37  36     1.384473636812   120.04199235   359.78178997
 C     39  38  37     1.384209371658   120.24290511     0.49063377
 H     40  39  38     1.081677661381   120.01646958   180.13857584
 H     36  35   7     1.082400289829   118.97378786   356.44224765
 H     37  36  35     1.080215108502   120.01674388   179.55911307
 H     38  37  36     1.080110028174   120.00866242   180.25237376
 H     39  38  37     1.080655217775   120.01193338   180.69129972
 C     12   4   3     1.825840638079    98.67659089   119.13602741
 C     46  12   4     1.392950247403   114.58288002   262.52292723
 C     47  46  12     1.381360269345   120.43085157   178.06947175
 C     48  47  46     1.386349318611   119.64622939     0.20218637
 C     49  48  47     1.385355920096   120.14629992     0.16054908
 C     50  49  48     1.383845241979   120.36340176   359.57657274
 H     47  46  12     1.096898876351   118.24982151   356.61160087
 H     48  47  46     1.080123466914   120.24772647   179.73748076
 H     49  48  47     1.080079850711   119.97771332   179.64751548
 H     50  49  48     1.080565741557   119.91885009   179.40249817
 H     51  50  49     1.081357312732   120.01844642   179.00839186
 Rh     7   3   2     2.231911161144   110.75659164   170.71990287
 C     57   7   3     1.837943408091   172.92730658   110.98083179
 O     58  57   7     1.150382466106   176.64181798   317.21337582
 H     57   7   3     1.537458617283    91.29896054   196.88920520

---------------------------
INTERNAL COORDINATES (A.U.)
---------------------------
 C      0   0   0     0.000000000000     0.00000000     0.00000000
 C      1   0   0     2.613914973825     0.00000000     0.00000000
 C      2   1   0     2.625735997902   119.88593644     0.00000000
 C      3   2   1     2.637795096393   119.85444430   359.67744378
 C      4   3   2     2.626305408491   119.90570075     0.37422622
 C      5   4   3     2.613415609424   119.88021419   359.89973493
 P      3   2   1     3.467521572467   123.95750192   178.97166967
 H      2   1   3     2.042616004747   120.25032813   180.15245951
 H      6   5   4     2.041420669226   119.86473024   180.11868201
 H      1   2   3     2.041399290004   119.84912083   179.98530963
 H      5   4   3     2.042486447392   119.88214788   179.89184792
 P      4   3   2     3.466234452696   116.55335047   182.85475470
 C     12   4   3     3.435539087942   102.73361559   224.77757313
 C      7   3   2     3.440631824562   100.90298212    37.14744344
 C     14   7   3     2.626883644556   124.63467510   276.42244128
 C     15  14   7     2.615023379238   119.71696795   178.51495204
 C     16  15  14     2.618218999012   120.28597092   359.88232001
 C     17  16  15     2.619183334374   120.15224357     0.47662530
 C     18  17  16     2.611271831876   119.71798582   359.75556886
 H     19  18  17     2.051659456834   121.13829498   178.37024204
 H     17  16  15     2.041214317914   119.85320233   179.90794414
 H     18  17  16     2.041209461235   120.06579883   179.30152190
 H     15  14   7     2.044786082369   120.10406966   357.49480633
 H     16  15  14     2.042139145804   119.76298779   179.70289989
 C     13  12   4     2.627902342455   122.17623050    31.95741770
 C     13  12   4     2.632784335193   117.91694649   204.85536292
 C     26  13  12     2.610404841520   120.21597260   184.46667438
 C     27  26  13     2.620222432303   119.97808354     0.96434977
 C     25  13  12     2.614235746273   120.02519785   175.12986273
 H     29  25  13     2.041979812380   119.81275896   179.44609816
 H     25  13  12     2.044349751962   119.84798867   354.93009168
 H     26  13  12     2.046230913539   119.19286121     4.58583425
 H     27  26  13     2.041344534417   119.97848423   180.64208033
 H     28  27  26     2.040990375115   119.98983241   180.01325544
 C      7   3   2     3.436877339781   101.87736727   291.24242479
 C     35   7   3     2.633581428594   116.76257068   165.36609947
 C     36  35   7     2.609676513787   120.19286677   176.33321110
 C     37  36  35     2.620810193604   119.94439207   359.10132916
 C     38  37  36     2.616276013208   120.04199235   359.78178997
 C     39  38  37     2.615776624441   120.24290511     0.49063377
 H     40  39  38     2.044074545191   120.01646958   180.13857584
 H     36  35   7     2.045440115054   118.97378786   356.44224765
 H     37  36  35     2.041310720793   120.01674388   179.55911307
 H     38  37  36     2.041112147750   120.00866242   180.25237376
 H     39  38  37     2.042142406788   120.01193338   180.69129972
 C     12   4   3     3.450338770153    98.67659089   119.13602741
 C     46  12   4     2.632294485769   114.58288002   262.52292723
 C     47  46  12     2.610392601342   120.43085157   178.06947175
 C     48  47  46     2.619820538123   119.64622939     0.20218637
 C     49  48  47     2.617943286988   120.14629992     0.16054908
 C     50  49  48     2.615088519070   120.36340176   359.57657274
 H     47  46  12     2.072838472909   118.24982151   356.61160087
 H     48  47  46     2.041137543289   120.24772647   179.73748076
 H     49  48  47     2.041055120611   119.97771332   179.64751548
 H     50  49  48     2.041973321240   119.91885009   179.40249817
 H     51  50  49     2.043469173976   120.01844642   179.00839186
 Rh     7   3   2     4.217700849804   110.75659164   170.71990287
 C     57   7   3     3.473209690937   172.92730658   110.98083179
 O     58  57   7     2.173907810205   176.64181798   317.21337582
 H     57   7   3     2.905375728902    91.29896054   196.88920520

---------------------
BASIS SET INFORMATION
---------------------
There are 5 groups of distinct atoms

 Group   1 Type C   : 7s4p1d contracted to 3s2p1d pattern {511/31/1}
 Group   2 Type P   : 10s7p1d contracted to 4s3p1d pattern {5311/511/1}
 Group   3 Type H   : 4s1p contracted to 2s1p pattern {31/1}
 Group   4 Type Rh  : 7s7p6d1f contracted to 6s4p3d1f pattern {211111/4111/411/1}
 Group   5 Type O   : 7s4p1d contracted to 3s2p1d pattern {511/31/1}

Atom   0C    basis set group =>   1
Atom   1C    basis set group =>   1
Atom   2C    basis set group =>   1
Atom   3C    basis set group =>   1
Atom   4C    basis set group =>   1
Atom   5C    basis set group =>   1
Atom   6P    basis set group =>   2
Atom   7H    basis set group =>   3
Atom   8H    basis set group =>   3
Atom   9H    basis set group =>   3
Atom  10H    basis set group =>   3
Atom  11P    basis set group =>   2
Atom  12C    basis set group =>   1
Atom  13C    basis set group =>   1
Atom  14C    basis set group =>   1
Atom  15C    basis set group =>   1
Atom  16C    basis set group =>   1
Atom  17C    basis set group =>   1
Atom  18C    basis set group =>   1
Atom  19H    basis set group =>   3
Atom  20H    basis set group =>   3
Atom  21H    basis set group =>   3
Atom  22H    basis set group =>   3
Atom  23H    basis set group =>   3
Atom  24C    basis set group =>   1
Atom  25C    basis set group =>   1
Atom  26C    basis set group =>   1
Atom  27C    basis set group =>   1
Atom  28C    basis set group =>   1
Atom  29H    basis set group =>   3
Atom  30H    basis set group =>   3
Atom  31H    basis set group =>   3
Atom  32H    basis set group =>   3
Atom  33H    basis set group =>   3
Atom  34C    basis set group =>   1
Atom  35C    basis set group =>   1
Atom  36C    basis set group =>   1
Atom  37C    basis set group =>   1
Atom  38C    basis set group =>   1
Atom  39C    basis set group =>   1
Atom  40H    basis set group =>   3
Atom  41H    basis set group =>   3
Atom  42H    basis set group =>   3
Atom  43H    basis set group =>   3
Atom  44H    basis set group =>   3
Atom  45C    basis set group =>   1
Atom  46C    basis set group =>   1
Atom  47C    basis set group =>   1
Atom  48C    basis set group =>   1
Atom  49C    basis set group =>   1
Atom  50C    basis set group =>   1
Atom  51H    basis set group =>   3
Atom  52H    basis set group =>   3
Atom  53H    basis set group =>   3
Atom  54H    basis set group =>   3
Atom  55H    basis set group =>   3
Atom  56Rh   basis set group =>   4
Atom  57C    basis set group =>   1
Atom  58O    basis set group =>   5
Atom  59H    basis set group =>   3
---------------------------------
AUXILIARY/J BASIS SET INFORMATION
---------------------------------
There are 5 groups of distinct atoms

 Group   1 Type C   : 12s5p4d2f1g contracted to 6s4p3d1f1g pattern {711111/2111/211/2/1}
 Group   2 Type P   : 14s5p5d2f1g contracted to 8s4p3d1f1g pattern {71111111/2111/311/2/1}
 Group   3 Type H   : 5s2p1d contracted to 3s1p1d pattern {311/2/1}
 Group   4 Type Rh  : 11s5p5d3f3g contracted to 8s5p5d2f3g pattern {41111111/11111/11111/21/111}
 Group   5 Type O   : 12s5p4d2f1g contracted to 6s4p3d1f1g pattern {711111/2111/211/2/1}

Atom   0C    basis set group =>   1
Atom   1C    basis set group =>   1
Atom   2C    basis set group =>   1
Atom   3C    basis set group =>   1
Atom   4C    basis set group =>   1
Atom   5C    basis set group =>   1
Atom   6P    basis set group =>   2
Atom   7H    basis set group =>   3
Atom   8H    basis set group =>   3
Atom   9H    basis set group =>   3
Atom  10H    basis set group =>   3
Atom  11P    basis set group =>   2
Atom  12C    basis set group =>   1
Atom  13C    basis set group =>   1
Atom  14C    basis set group =>   1
Atom  15C    basis set group =>   1
Atom  16C    basis set group =>   1
Atom  17C    basis set group =>   1
Atom  18C    basis set group =>   1
Atom  19H    basis set group =>   3
Atom  20H    basis set group =>   3
Atom  21H    basis set group =>   3
Atom  22H    basis set group =>   3
Atom  23H    basis set group =>   3
Atom  24C    basis set group =>   1
Atom  25C    basis set group =>   1
Atom  26C    basis set group =>   1
Atom  27C    basis set group =>   1
Atom  28C    basis set group =>   1
Atom  29H    basis set group =>   3
Atom  30H    basis set group =>   3
Atom  31H    basis set group =>   3
Atom  32H    basis set group =>   3
Atom  33H    basis set group =>   3
Atom  34C    basis set group =>   1
Atom  35C    basis set group =>   1
Atom  36C    basis set group =>   1
Atom  37C    basis set group =>   1
Atom  38C    basis set group =>   1
Atom  39C    basis set group =>   1
Atom  40H    basis set group =>   3
Atom  41H    basis set group =>   3
Atom  42H    basis set group =>   3
Atom  43H    basis set group =>   3
Atom  44H    basis set group =>   3
Atom  45C    basis set group =>   1
Atom  46C    basis set group =>   1
Atom  47C    basis set group =>   1
Atom  48C    basis set group =>   1
Atom  49C    basis set group =>   1
Atom  50C    basis set group =>   1
Atom  51H    basis set group =>   3
Atom  52H    basis set group =>   3
Atom  53H    basis set group =>   3
Atom  54H    basis set group =>   3
Atom  55H    basis set group =>   3
Atom  56Rh   basis set group =>   4
Atom  57C    basis set group =>   1
Atom  58O    basis set group =>   5
Atom  59H    basis set group =>   3
-------------------------
ECP PARAMETER INFORMATION
-------------------------

 Group 1, Type Rh ECP Def2-ECP (replacing 28 core electrons, lmax=3)

Atom  56Rh   ECP group =>   1



           ************************************************************
           *        Program running with 10 parallel MPI-processes    *
           *              working on a common directory               *
           ************************************************************
------------------------------------------------------------------------------
                             ORCA STARTUP CALCULATIONS
                           -- RI-GTO INTEGRALS CHOSEN --
------------------------------------------------------------------------------
------------------------------------------------------------------------------
                   ___                                                        
                  /   \      - P O W E R E D   B Y -                         
                 /     \                                                     
                 |  |  |   _    _      __       _____    __    __             
                 |  |  |  | |  | |    /  \     |  _  \  |  |  /  |          
                  \  \/   | |  | |   /    \    | | | |  |  | /  /          
                 / \  \   | |__| |  /  /\  \   | |_| |  |  |/  /          
                |  |  |   |  __  | /  /__\  \  |    /   |      \           
                |  |  |   | |  | | |   __   |  |    \   |  |\   \          
                \     /   | |  | | |  |  |  |  | |\  \  |  | \   \       
                 \___/    |_|  |_| |__|  |__|  |_| \__\ |__|  \__/        
                                                                              
                      - O R C A' S   B I G   F R I E N D -                    
                                      &                                       
                       - I N T E G R A L  F E E D E R -                       
                                                                              
 v1 FN, 2020, v2 2021, v3 2022-2024                                           
------------------------------------------------------------------------------


----------------------
SHARK INTEGRAL PACKAGE
----------------------

Number of atoms                             ...     60
Number of basis functions                   ...    649
Number of shells                            ...    297
Maximum angular momentum                    ...      3
Integral batch strategy                     ... SHARK/LIBINT Hybrid
RI-J (if used) integral strategy            ... SPLIT-RIJ (Revised 2003 algorithm where possible)
Printlevel                                  ...      1
Contraction scheme used                     ... SEGMENTED contraction
Prescreening option                         ... SCHWARTZ
   Thresh                                   ... 2.500e-11
   Tcut                                     ... 2.500e-12
   Tpresel                                  ... 2.500e-12 
Coulomb Range Separation                    ... NOT USED
Exchange Range Separation                   ... NOT USED
Multipole approximations                    ... NOT USED
Finite Nucleus Model                        ... NOT USED
CABS basis                                  ... NOT available
Auxiliary Coulomb fitting basis             ... AVAILABLE
   # of basis functions in Aux-J            ...   2034
   # of shells in Aux-J                     ...    662
   Maximum angular momentum in Aux-J        ...      4
Auxiliary J/K fitting basis                 ... NOT available
Auxiliary Correlation fitting basis         ... NOT available
Auxiliary 'external' fitting basis          ... NOT available

Checking pre-screening integrals            ... done (  0.0 sec) Dimension = 297
Check shell pair data                       ... done (  0.0 sec)
Shell pair information
Shell pair cut-off parameter TPreSel        ...   2.5e-12
Total number of shell pairs                 ...     44253
Shell pairs after pre-screening             ...     29267
Total number of primitive shell pairs       ...    161011
Primitive shell pairs kept                  ...     63873
          la=0 lb=0:   8703 shell pairs
          la=1 lb=0:  10820 shell pairs
          la=1 lb=1:   3454 shell pairs
          la=2 lb=0:   3546 shell pairs
          la=2 lb=1:   2210 shell pairs
          la=2 lb=2:    341 shell pairs
          la=3 lb=0:    106 shell pairs
          la=3 lb=1:     67 shell pairs
          la=3 lb=2:     19 shell pairs
          la=3 lb=3:      1 shell pairs

Calculating one electron integrals          ... done (  0.0 sec)
Calculating ECP integrals                   ... done (  0.6 sec)
Calculating RI/J V-Matrix + Cholesky decomp.... done (  0.2 sec)
Calculating Nuclear repulsion               ... done (  0.0 sec) ENN=   4299.990497420278 Eh

Diagonalization of the overlap matrix:
Smallest eigenvalue                        ... 2.228e-04
Time for diagonalization                   ...    0.063 sec
Threshold for overlap eigenvalues          ... 1.000e-07
Number of eigenvalues below threshold      ... 0
Time for construction of square roots      ...    0.052 sec
Total time needed                          ...    0.123 sec

-------------------
DFT GRID GENERATION
-------------------

General Integration Accuracy     IntAcc      ... 4.388
Radial Grid Type                 RadialGrid  ... OptM3 with GC (2021)
Angular Grid (max. ang.)         AngularGrid ... 4 (Lebedev-302)
Angular grid pruning method      GridPruning ... 4 (adaptive)
Weight generation scheme         WeightScheme... mBecke (2022)
Basis function cutoff            BFCut       ... 1.0000e-11
Integration weight cutoff        WCut        ... 1.0000e-14
Partially contracted basis set               ... off
Rotationally invariant grid construction     ... off
Angular grids for H and He will be reduced by one unit

Total number of grid points                  ...   292511
Total number of batches                      ...     4602
Average number of points per batch           ...       63
Average number of grid points per atom       ...     4875
Initializing property integral containers    ... done (  0.0 sec)

SHARK setup successfully completed in   3.5 seconds

Maximum memory used throughout the entire STARTUP-calculation: 94.7 MB


           ************************************************************
           *        Program running with 10 parallel MPI-processes    *
           *              working on a common directory               *
           ************************************************************
-------------------------------------------------------------------------------
                                 ORCA GUESS
                   Start orbitals & Density for SCF / CASSCF
-------------------------------------------------------------------------------

------------
SCF SETTINGS
------------
Hamiltonian:
 Density Functional     Method          .... DFT(GTOs)
 Exchange Functional    Exchange        .... PBE
   PBE kappa parameter   XKappa         ....  0.804000
   PBE mue parameter    XMuePBE         ....  0.219520
 Correlation Functional Correlation     .... PBE
   PBE beta parameter  CBetaPBE         ....  0.066725
 LDA part of GGA corr.  LDAOpt          .... PW91-LDA
 Gradients option       PostSCFGGA      .... off
 Hybrid DFT is turned on
   Fraction HF Exchange ScalHFX         ....  0.250000
   Scaling of DF-GGA-X  ScalDFX         ....  0.750000
   Scaling of DF-GGA-C  ScalDFC         ....  1.000000
   Scaling of DF-LDA-C  ScalLDAC        ....  1.000000
   Perturbative correction              ....  0.000000
   NL short-range parameter             ....  6.900000
 RI-approximation to the Coulomb term is turned on
   Number of AuxJ basis functions       .... 2034
   RIJ-ON(X) (HFX calculated with O(N)) .... on


General Settings:
 Integral files         IntName         .... /cluster/scratch/rueppf/orcajob__35520377-hfCg/dppBz_tolman
 Hartree-Fock type      HFTyp           .... RHF
 Total Charge           Charge          ....    0
 Multiplicity           Mult            ....    1
 Number of Electrons    NEL             ....  266
 Basis Dimension        Dim             ....  649
 Nuclear Repulsion      ENuc            ....   4299.9904974203 Eh

Convergence Acceleration:
 AO-DIIS                CNVDIIS         .... on
   Start iteration      DIISMaxIt       ....    12
   Startup error        DIISStart       ....  0.200000
   # of expansion vecs  DIISMaxEq       ....     5
   Bias factor          DIISBfac        ....   1.050
   Max. coefficient     DIISMaxC        ....  10.000
 MO-DIIS                CNVKDIIS        .... off
 Trust-Rad. Augm. Hess. CNVTRAH         .... auto
   Auto Start mean grad. ratio tolernc. ....  1.125000
   Auto Start start iteration           ....    50
   Auto Start num. interpolation iter.  ....    10
   Max. Number of Micro iterations      ....    24
   Max. Number of Macro iterations      .... Maxiter - #DIIS iter
   Number of Davidson start vectors     ....     2
   Converg. threshold    (grad. norm)   ....   1.000e-05
   Grad. Scal. Fac. for Micro threshold ....   0.100
   Minimum threshold for Micro iter.    ....   1.000e-02
   NR start threshold (gradient norm)   ....   1.000e-04
   Initial trust radius                 ....   0.400
   Minimum AH scaling param. (alpha)    ....   1.000
   Maximum AH scaling param. (alpha)    .... 1000.000
   Quad. conv. algorithm                .... NR
   White noise on init. David. guess    .... on
   Maximum white noise                  ....   0.010
   Pseudo random numbers                .... off
   Inactive MOs                         .... canonical
   Orbital update algorithm             .... Taylor
   Preconditioner                       .... Diag
   Full preconditioner red. dimension   ....   250
   COSX micro iterations for RIJONX calc.... off
 SOSCF                  CNVSOSCF        .... on
   Start iteration      SOSCFMaxIt      ....   150
   Startup grad/error   SOSCFStart      ....  0.003300
   Hessian update       SOSCFHessUp     .... L-BFGS
 Level Shifting         CNVShift        .... on
   Level shift para.    LevelShift      ....    0.2500
   Turn off err/grad.   ShiftErr        ....    0.0010
 Zerner damping         CNVZerner       .... off
 Static damping         CNVDamp         .... on
   Fraction old density DampFac         ....    0.7000
   Max. Damping (<1)    DampMax         ....    0.9800
   Min. Damping (>=0)   DampMin         ....    0.0000
   Turn off err/grad.   DampErr         ....    0.1000

SCF Procedure:
 Maximum # iterations   MaxIter         ....   125
 SCF integral mode      SCFMode         .... Direct
   Integral package                     .... SHARK and LIBINT hybrid scheme
 Reset frequency        DirectResetFreq ....    20
 Integral Threshold     Thresh          ....  2.500e-11 Eh
 Primitive CutOff       TCut            ....  2.500e-12 Eh

Convergence Tolerance:
 Convergence Check Mode ConvCheckMode   .... Total+1el-Energy
 Convergence forced     ConvForced      .... 0
 Energy Change          TolE            ....  1.000e-08 Eh
 1-El. energy change                    ....  1.000e-05 Eh
 Orbital Gradient       TolG            ....  1.000e-05
 Orbital Rotation angle TolX            ....  1.000e-05
 DIIS Error             TolErr          ....  5.000e-07

------------------------------
INITIAL GUESS: MODEL POTENTIAL
------------------------------
Loading Hartree-Fock densities                     ... done
Atomic calculation to generate a density for atom 56 (Rh with ECP)
  Multiplicity assumed   :    4
  Atomic configuration   : 1s2 2s2 2p6 3s2 3p6 4s2 3d10 4p6 5s2 4d7 
  Number of open shells  : 1
  Command: /cluster/software/commercial/orca/6.0.1/x86_64/bin/orca /cluster/scratch/rueppf/orcajob__35520377-hfCg/dppBz_tolman_atom45.inp "" > /cluster/scratch/rueppf/orcajob__35520377-hfCg/dppBz_tolman_atom45.out
Returned from the atomic calculation with res=0
Calculating cut-offs                               ... done
Initializing the effective Hamiltonian             ... done
Setting up the integral package (SHARK)            ... done
Starting the Coulomb interaction                   ... done (   0.5 sec)
Making the grid                                    ... done (   0.5 sec)
Mapping shells                                     ... done
Starting the XC term evaluation                    ... done (   0.1 sec)
  promolecular density results
     # of electrons  =    293.987089566
     EX              =   -352.867340861
     EC              =    -10.882297546
     EX+EC           =   -363.749638407
Transforming the Hamiltonian                       ... done (   0.1 sec)
Diagonalizing the Hamiltonian                      ... done (   0.1 sec)
Back transforming the eigenvectors                 ... done (   0.0 sec)
Now organizing SCF variables                       ... done
                      ------------------
                      INITIAL GUESS DONE (   5.7 sec)
                      ------------------
             **** ENERGY FILE WAS UPDATED (/cluster/scratch/rueppf/orcajob__35520377-hfCg/dppBz_tolman.en.tmp) ****
Finished Guess after   6.1 sec
Maximum memory used throughout the entire GUESS-calculation: 61.4 MB


           ************************************************************
           *        Program running with 10 parallel MPI-processes    *
           *              working on a common directory               *
           ************************************************************

-------------------------------------------------------------------------------------------
                                      ORCA LEAN-SCF
                              memory conserving SCF solver
-------------------------------------------------------------------------------------------

----------------------------------------D-I-I-S--------------------------------------------
Iteration    Energy (Eh)           Delta-E    RMSDP     MaxDP     DIISErr   Damp  Time(sec)
-------------------------------------------------------------------------------------------
               ***  Starting incremental Fock matrix formation  ***
    1    -2061.3985475412791857     0.00e+00  1.82e-03  1.42e-01  4.48e-01  0.700  16.3
    2    -2061.6942636126368598    -2.96e-01  1.23e-03  7.91e-02  2.89e-01  0.700  14.1
                               ***Turning on AO-DIIS***
    3    -2061.8176022230709350    -1.23e-01  6.17e-04  2.45e-02  1.93e-01  0.700  13.7
    4    -2061.8945174171267354    -7.69e-02  3.69e-04  3.21e-02  1.41e-01  0.700  13.0
    5    -2061.9453027781300989    -5.08e-02  2.49e-04  2.68e-02  9.86e-02  0.700  12.2
    6    -2061.9802878081136441    -3.50e-02  5.86e-04  6.29e-02  6.87e-02  0.000  11.9
                              *** Initializing SOSCF ***
---------------------------------------S-O-S-C-F--------------------------------------
Iteration    Energy (Eh)           Delta-E    RMSDP     MaxDP     MaxGrad    Time(sec)
--------------------------------------------------------------------------------------
    7    -2062.0610447248964192    -8.08e-02  4.68e-05  2.10e-03  1.79e-03    12.9
               *** Restarting incremental Fock matrix formation ***
    8    -2062.0610840498620746    -3.93e-05  3.90e-05  2.90e-03  4.45e-04    16.4
    9    -2062.0610511100912845     3.29e-05  2.63e-05  1.89e-03  1.11e-03     9.9
   10    -2062.0610949926722242    -4.39e-05  9.12e-06  8.64e-04  8.52e-05     9.4
   11    -2062.0610926784474941     2.31e-06  6.11e-06  8.22e-04  2.51e-04     8.3
   12    -2062.0610953806099133    -2.70e-06  4.51e-06  2.56e-04  4.88e-05     7.7
   13    -2062.0610950946120283     2.86e-07  2.81e-06  2.10e-04  9.93e-05     7.9
   14    -2062.0610955202992045    -4.26e-07  1.26e-06  7.74e-05  2.41e-05     7.3
   15    -2062.0610954430021593     7.73e-08  7.80e-07  5.02e-05  3.31e-05     6.5
   16    -2062.0610955290030688    -8.60e-08  1.63e-07  6.07e-06  7.08e-07     6.3
                  *** Gradient check signals convergence ***

               *****************************************************
               *                     SUCCESS                       *
               *           SCF CONVERGED AFTER  16 CYCLES          *
               *****************************************************

             **** ENERGY FILE WAS UPDATED (/cluster/scratch/rueppf/orcajob__35520377-hfCg/dppBz_tolman.en.tmp) ****

----------------
TOTAL SCF ENERGY
----------------

Total Energy       :      -2062.06109552900307 Eh          -56111.53506 eV

Components:
Nuclear Repulsion  :       4299.99049742027819 Eh          117008.69004 eV
Electronic Energy  :      -6362.05159294928126 Eh         -173120.22511 eV
One Electron Energy:     -11419.87080732235518 Eh         -310750.48292 eV
Two Electron Energy:       5057.81921437307392 Eh          137630.25781 eV

Virial components:
Potential Energy   :      -4040.53887821965509 Eh         -109948.65256 eV
Kinetic Energy     :       1978.47778269065202 Eh           53837.11749 eV
Virial Ratio       :          2.04224627315485

DFT components:
N(Alpha)           :      133.000219894802 electrons
N(Beta)            :      133.000219894802 electrons
N(Total)           :      266.000439789603 electrons
E(X)               :     -174.687175534609 Eh       
E(C)               :       -9.272928385582 Eh       
E(XC)              :     -183.960103920191 Eh       

---------------
SCF CONVERGENCE
---------------

  Last Energy change         ...    8.6001e-08  Tolerance :   1.0000e-08
  Last MAX-Density change    ...    6.0689e-06  Tolerance :   1.0000e-07
  Last RMS-Density change    ...    1.6325e-07  Tolerance :   5.0000e-09
  Last DIIS Error            ...    1.7890e-03  Tolerance :   5.0000e-07
  Last Orbital Gradient      ...    7.0810e-07  Tolerance :   1.0000e-05
  Last Orbital Rotation      ...    2.5711e-06  Tolerance :   1.0000e-05


----------------
ORBITAL ENERGIES
----------------

  NO   OCC          E(Eh)            E(eV) 
   0   2.0000     -77.234517     -2101.6581 
   1   2.0000     -77.232826     -2101.6121 
   2   2.0000     -19.258649      -524.0545 
   3   2.0000     -10.321717      -280.8682 
   4   2.0000     -10.257538      -279.1218 
   5   2.0000     -10.257060      -279.1088 
   6   2.0000     -10.253849      -279.0214 
   7   2.0000     -10.253202      -279.0038 
   8   2.0000     -10.252854      -278.9944 
   9   2.0000     -10.252429      -278.9828 
  10   2.0000     -10.251302      -278.9521 
  11   2.0000     -10.250215      -278.9225 
  12   2.0000     -10.249310      -278.8979 
  13   2.0000     -10.247309      -278.8434 
  14   2.0000     -10.247267      -278.8423 
  15   2.0000     -10.245880      -278.8046 
  16   2.0000     -10.245190      -278.7858 
  17   2.0000     -10.244999      -278.7806 
  18   2.0000     -10.244499      -278.7670 
  19   2.0000     -10.244161      -278.7578 
  20   2.0000     -10.243763      -278.7470 
  21   2.0000     -10.243701      -278.7453 
  22   2.0000     -10.243612      -278.7429 
  23   2.0000     -10.243549      -278.7411 
  24   2.0000     -10.243145      -278.7302 
  25   2.0000     -10.242894      -278.7233 
  26   2.0000     -10.242079      -278.7011 
  27   2.0000     -10.241991      -278.6987 
  28   2.0000     -10.241541      -278.6865 
[...]
156:   3191.60   0.000200    1.01  0.000020  ( 0.001164 -0.002349 -0.003556)
157:   3198.21   0.000035    0.18  0.000003  ( 0.001413 -0.001208 -0.000021)
158:   3198.48   0.000018    0.09  0.000002  ( 0.000352 -0.000569  0.001128)
159:   3200.09   0.000050    0.25  0.000005  ( 0.001035  0.000273  0.001941)
160:   3201.78   0.000016    0.08  0.000002  (-0.001210  0.000347  0.000098)
161:   3201.94   0.000106    0.54  0.000010  ( 0.000643  0.002921  0.001192)
162:   3203.97   0.000080    0.40  0.000008  (-0.002129 -0.001754 -0.000386)
163:   3206.27   0.000100    0.50  0.000010  ( 0.000898 -0.001931 -0.002273)
164:   3207.38   0.000134    0.68  0.000013  ( 0.002144 -0.000252  0.002895)
165:   3208.55   0.000082    0.41  0.000008  (-0.000920  0.000815  0.002544)
166:   3211.58   0.000213    1.08  0.000021  (-0.002970 -0.001446 -0.003131)
167:   3212.32   0.000063    0.32  0.000006  ( 0.002431  0.000072 -0.000442)
168:   3215.99   0.000444    2.24  0.000043  ( 0.001461 -0.006399 -0.000064)
169:   3216.07   0.000617    3.12  0.000060  ( 0.003655 -0.004498 -0.005128)
170:   3217.53   0.000257    1.30  0.000025  ( 0.004852 -0.000514 -0.001066)
171:   3220.84   0.001442    7.29  0.000140  (-0.006969 -0.009023 -0.003112)
172:   3221.23   0.001139    5.76  0.000110  ( 0.005691 -0.008799  0.000761)
173:   3223.57   0.001261    6.37  0.000122  (-0.009201  0.004237 -0.004409)
174:   3223.93   0.001029    5.20  0.000100  ( 0.001053 -0.006996 -0.007043)
175:   3228.36   0.002596   13.12  0.000251  (-0.006259  0.011882 -0.008399)
176:   3229.36   0.003693   18.66  0.000357  ( 0.010572 -0.000412 -0.015650)
177:   3230.08   0.001179    5.96  0.000114  ( 0.004369  0.002694  0.009359)
178:   3230.36   0.004398   22.22  0.000425  (-0.016496 -0.009784 -0.007548)
179:   3230.48   0.002052   10.37  0.000198  (-0.008705  0.004636  0.010048)

* The epsilon (eps) is given for a Dirac delta lineshape.
** The dipole moment derivative (T) already includes vibrational overlap.

The first frequency considered to be a vibration is 6
The total number of vibrations considered is 174


--------------------------
THERMOCHEMISTRY AT 298.15K
--------------------------

Temperature         ...   298.15 K
Pressure            ...     1.00 atm
Total Mass          ...   578.40 AMU
Quasi RRHO          ...     True
Cut-Off Frequency   ...     1.00 cm^-1

Throughout the following assumptions are being made:
  (1) The electronic state is orbitally nondegenerate
  (2) There are no thermally accessible electronically excited states
  (3) Hindered rotations indicated by low frequency modes are not
      treated as such but are treated as vibrations and this may
      cause some error
  (4) All equations used are the standard statistical mechanics
      equations for an ideal gas
  (5) All vibrations are strictly harmonic

freq.      19.32  E(vib)   ...       0.57 
freq.      22.74  E(vib)   ...       0.56 
freq.      28.81  E(vib)   ...       0.55 
freq.      35.40  E(vib)   ...       0.54 
freq.      37.61  E(vib)   ...       0.54 
freq.      42.06  E(vib)   ...       0.53 
freq.      42.74  E(vib)   ...       0.53 
freq.      48.26  E(vib)   ...       0.53 
freq.      51.80  E(vib)   ...       0.52 
freq.      56.94  E(vib)   ...       0.51 
freq.      60.38  E(vib)   ...       0.51 
freq.      67.73  E(vib)   ...       0.50 
freq.      72.67  E(vib)   ...       0.49 
freq.      80.39  E(vib)   ...       0.48 
freq.      89.24  E(vib)   ...       0.47 
freq.     143.95  E(vib)   ...       0.41 
freq.     149.03  E(vib)   ...       0.40 
freq.     189.22  E(vib)   ...       0.36 
freq.     194.42  E(vib)   ...       0.36 
freq.     202.42  E(vib)   ...       0.35 
freq.     205.04  E(vib)   ...       0.35 
freq.     213.28  E(vib)   ...       0.34 
freq.     225.32  E(vib)   ...       0.33 
freq.     233.02  E(vib)   ...       0.32 
freq.     252.95  E(vib)   ...       0.30 
freq.     258.01  E(vib)   ...       0.30 
freq.     265.04  E(vib)   ...       0.29 
freq.     295.48  E(vib)   ...       0.27 
freq.     340.95  E(vib)   ...       0.23 
freq.     404.70  E(vib)   ...       0.19 
freq.     406.29  E(vib)   ...       0.19 
freq.     408.89  E(vib)   ...       0.19 
freq.     412.48  E(vib)   ...       0.19 
freq.     413.94  E(vib)   ...       0.19 
freq.     422.90  E(vib)   ...       0.18 
freq.     430.95  E(vib)   ...       0.18 
freq.     442.23  E(vib)   ...       0.17 
freq.     451.83  E(vib)   ...       0.16 
freq.     457.12  E(vib)   ...       0.16 
freq.     465.90  E(vib)   ...       0.16 
freq.     479.89  E(vib)   ...       0.15 
freq.     494.65  E(vib)   ...       0.14 
freq.     506.14  E(vib)   ...       0.14 
freq.     516.62  E(vib)   ...       0.13 
freq.     527.62  E(vib)   ...       0.13 
freq.     533.65  E(vib)   ...       0.13 
freq.     544.90  E(vib)   ...       0.12 
freq.     547.11  E(vib)   ...       0.12 
freq.     549.87  E(vib)   ...       0.12 
freq.     626.93  E(vib)   ...       0.09 
freq.     628.05  E(vib)   ...       0.09 
freq.     628.15  E(vib)   ...       0.09 
freq.     629.19  E(vib)   ...       0.09 
freq.     683.58  E(vib)   ...       0.07 
freq.     708.82  E(vib)   ...       0.07 
freq.     713.55  E(vib)   ...       0.07 
freq.     717.55  E(vib)   ...       0.07 
freq.     720.46  E(vib)   ...       0.07 
freq.     722.21  E(vib)   ...       0.07 
freq.     722.80  E(vib)   ...       0.07 
freq.     724.24  E(vib)   ...       0.06 
freq.     728.90  E(vib)   ...       0.06 
freq.     730.50  E(vib)   ...       0.06 
freq.     744.67  E(vib)   ...       0.06 
freq.     763.36  E(vib)   ...       0.06 
freq.     768.33  E(vib)   ...       0.06 
freq.     771.00  E(vib)   ...       0.05 
freq.     773.44  E(vib)   ...       0.05 
freq.     774.78  E(vib)   ...       0.05 
freq.     778.91  E(vib)   ...       0.05 
freq.     865.97  E(vib)   ...       0.04 
freq.     870.06  E(vib)   ...       0.04 
freq.     873.89  E(vib)   ...       0.04 
freq.     875.62  E(vib)   ...       0.04 
freq.     910.79  E(vib)   ...       0.03 
freq.     944.31  E(vib)   ...       0.03 
freq.     951.49  E(vib)   ...       0.03 
freq.     955.29  E(vib)   ...       0.03 
freq.     955.63  E(vib)   ...       0.03 
freq.     991.19  E(vib)   ...       0.02 
freq.    1004.16  E(vib)   ...       0.02 
freq.    1008.12  E(vib)   ...       0.02 
freq.    1011.29  E(vib)   ...       0.02 
freq.    1012.50  E(vib)   ...       0.02 
freq.    1014.45  E(vib)   ...       0.02 
freq.    1014.93  E(vib)   ...       0.02 
freq.    1015.17  E(vib)   ...       0.02 
freq.    1015.41  E(vib)   ...       0.02 
freq.    1027.30  E(vib)   ...       0.02 
freq.    1030.73  E(vib)   ...       0.02 
freq.    1031.33  E(vib)   ...       0.02 
freq.    1032.99  E(vib)   ...       0.02 
freq.    1033.78  E(vib)   ...       0.02 
freq.    1055.13  E(vib)   ...       0.02 
freq.    1058.60  E(vib)   ...       0.02 
freq.    1059.12  E(vib)   ...       0.02 
freq.    1059.88  E(vib)   ...       0.02 
freq.    1060.29  E(vib)   ...       0.02 
freq.    1070.07  E(vib)   ...       0.02 
freq.    1104.09  E(vib)   ...       0.02 
freq.    1104.55  E(vib)   ...       0.02 
freq.    1107.57  E(vib)   ...       0.02 
freq.    1108.28  E(vib)   ...       0.02 
freq.    1134.59  E(vib)   ...       0.01 
freq.    1135.15  E(vib)   ...       0.01 
freq.    1135.98  E(vib)   ...       0.01 
freq.    1138.38  E(vib)   ...       0.01 
freq.    1149.84  E(vib)   ...       0.01 
freq.    1155.17  E(vib)   ...       0.01 
freq.    1171.25  E(vib)   ...       0.01 
freq.    1171.57  E(vib)   ...       0.01 
freq.    1171.88  E(vib)   ...       0.01 
freq.    1172.04  E(vib)   ...       0.01 
freq.    1175.64  E(vib)   ...       0.01 
freq.    1193.47  E(vib)   ...       0.01 
freq.    1194.61  E(vib)   ...       0.01 
freq.    1197.28  E(vib)   ...       0.01 
freq.    1198.65  E(vib)   ...       0.01 
freq.    1275.15  E(vib)   ...       0.01 
freq.    1320.73  E(vib)   ...       0.01 
freq.    1322.30  E(vib)   ...       0.01 
freq.    1325.43  E(vib)   ...       0.01 
freq.    1325.83  E(vib)   ...       0.01 
freq.    1383.33  E(vib)   ...       0.00 
freq.    1393.71  E(vib)   ...       0.00 
freq.    1395.07  E(vib)   ...       0.00 
freq.    1396.34  E(vib)   ...       0.00 
freq.    1396.43  E(vib)   ...       0.00 
freq.    1469.94  E(vib)   ...       0.00 
freq.    1474.78  E(vib)   ...       0.00 
freq.    1474.99  E(vib)   ...       0.00 
freq.    1477.47  E(vib)   ...       0.00 
freq.    1477.78  E(vib)   ...       0.00 
freq.    1487.57  E(vib)   ...       0.00 
freq.    1518.36  E(vib)   ...       0.00 
freq.    1518.82  E(vib)   ...       0.00 
freq.    1520.42  E(vib)   ...       0.00 
freq.    1520.48  E(vib)   ...       0.00 
freq.    1645.80  E(vib)   ...       0.00 
freq.    1658.64  E(vib)   ...       0.00 
freq.    1659.18  E(vib)   ...       0.00 
freq.    1660.69  E(vib)   ...       0.00 
freq.    1661.10  E(vib)   ...       0.00 
freq.    1661.67  E(vib)   ...       0.00 
freq.    1675.37  E(vib)   ...       0.00 
freq.    1675.69  E(vib)   ...       0.00 
freq.    1676.59  E(vib)   ...       0.00 
freq.    1677.18  E(vib)   ...       0.00 
freq.    1961.55  E(vib)   ...       0.00 
freq.    2124.94  E(vib)   ...       0.00 
freq.    3191.60  E(vib)   ...       0.00 
freq.    3198.21  E(vib)   ...       0.00 
freq.    3198.48  E(vib)   ...       0.00 
freq.    3200.09  E(vib)   ...       0.00 
freq.    3201.78  E(vib)   ...       0.00 
freq.    3201.94  E(vib)   ...       0.00 
freq.    3203.97  E(vib)   ...       0.00 
freq.    3206.27  E(vib)   ...       0.00 
freq.    3207.38  E(vib)   ...       0.00 
freq.    3208.55  E(vib)   ...       0.00 
freq.    3211.58  E(vib)   ...       0.00 
freq.    3212.32  E(vib)   ...       0.00 
freq.    3215.99  E(vib)   ...       0.00 
freq.    3216.07  E(vib)   ...       0.00 
freq.    3217.53  E(vib)   ...       0.00 
freq.    3220.84  E(vib)   ...       0.00 
freq.    3221.23  E(vib)   ...       0.00 
freq.    3223.57  E(vib)   ...       0.00 
freq.    3223.93  E(vib)   ...       0.00 
freq.    3228.36  E(vib)   ...       0.00 
freq.    3229.36  E(vib)   ...       0.00 
freq.    3230.08  E(vib)   ...       0.00 
freq.    3230.36  E(vib)   ...       0.00 
freq.    3230.48  E(vib)   ...       0.00 

------------
INNER ENERGY
------------

The inner energy is: U= E(el) + E(ZPE) + E(vib) + E(rot) + E(trans)
    E(el)   - is the total energy from the electronic structure calculation
              = E(kin-el) + E(nuc-el) + E(el-el) + E(nuc-nuc)
    E(ZPE)  - the the zero temperature vibrational energy from the frequency calculation
    E(vib)  - the the finite temperature correction to E(ZPE) due to population
              of excited vibrational states
    E(rot)  - is the rotational thermal energy
    E(trans)- is the translational thermal energy

Summary of contributions to the inner energy U:
Electronic energy                ...  -2062.18150014 Eh
Zero point energy                ...      0.46810445 Eh     293.74 kcal/mol
Thermal vibrational correction   ...      0.02880195 Eh      18.07 kcal/mol
Thermal rotational correction    ...      0.00141627 Eh       0.89 kcal/mol
Thermal translational correction ...      0.00141627 Eh       0.89 kcal/mol
-----------------------------------------------------------------------
Total thermal energy                  -2061.68176119 Eh


Summary of corrections to the electronic energy:
(perhaps to be used in another calculation)
Total thermal correction                  0.03163449 Eh      19.85 kcal/mol
Non-thermal (ZPE) correction              0.46810445 Eh     293.74 kcal/mol
-----------------------------------------------------------------------
Total correction                          0.49973894 Eh     313.59 kcal/mol


--------
ENTHALPY
--------

The enthalpy is H = U + kB*T
                kB is Boltzmann's constant
Total thermal energy              ...  -2061.68176119 Eh 
Thermal Enthalpy correction       ...      0.00094421 Eh       0.59 kcal/mol
-----------------------------------------------------------------------
Total Enthalpy                    ...  -2061.68081699 Eh


Note: Only C1 symmetry has been detected, increase convergence thresholds 
      if your molecule has a higher symmetry. Symmetry factor of 1.0 is   
      used for the rotational entropy correction. 
 

Note: Rotational entropy computed according to Herzberg 
Infrared and Raman Spectra, Chapter V,1, Van Nostrand Reinhold, 1945 
Point Group:  C1, Symmetry Number:   1  
Rotational constants in cm-1:     0.004369     0.003042     0.002624 

Vibrational entropy computed according to the QRRHO of S. Grimme
Chem.Eur.J. 2012 18 9955 using a reference frequency of 100.0 cm-1


-------
ENTROPY
-------

The entropy contributions are T*S = T*(S(el)+S(vib)+S(rot)+S(trans))
     S(el)   - electronic entropy
     S(vib)  - vibrational entropy
     S(rot)  - rotational entropy
     S(trans)- translational entropy
The entropies will be listed as multiplied by the temperature to get
units of energy

Electronic entropy                ...      0.00000000 Eh      0.00 kcal/mol
Vibrational entropy               ...      0.05161291 Eh     32.39 kcal/mol
Rotational entropy                ...      0.01761729 Eh     11.05 kcal/mol
Translational entropy             ...      0.02135693 Eh     13.40 kcal/mol
-----------------------------------------------------------------------
Final entropy term                ...      0.09058713 Eh     56.84 kcal/mol

In case the symmetry of your molecule has not been determined correctly
or in case you have a reason to use a different symmetry number we print 
out the resulting rotational entropy values for sn=1,12:

 non-linear molecules -----------------------------------
|  sn= 1 | S(rot)=       0.01761729 Eh     11.05 kcal/mol|
|  sn= 2 | S(rot)=       0.01696283 Eh     10.64 kcal/mol|
|  sn= 3 | S(rot)=       0.01658000 Eh     10.40 kcal/mol|
|  sn= 4 | S(rot)=       0.01630838 Eh     10.23 kcal/mol|
|  sn= 5 | S(rot)=       0.01609769 Eh     10.10 kcal/mol|
|  sn= 6 | S(rot)=       0.01592554 Eh      9.99 kcal/mol|
|  sn= 7 | S(rot)=       0.01578000 Eh      9.90 kcal/mol|
|  sn= 8 | S(rot)=       0.01565392 Eh      9.82 kcal/mol|
|  sn= 9 | S(rot)=       0.01554271 Eh      9.75 kcal/mol|
|  sn=10 | S(rot)=       0.01544323 Eh      9.69 kcal/mol|
|  sn=11 | S(rot)=       0.01535324 Eh      9.63 kcal/mol|
|  sn=12 | S(rot)=       0.01527109 Eh      9.58 kcal/mol|
 linear molecules ---------------------------------------
|  Dinfh | S(rot)=       0.01093708 Eh      6.86 kcal/mol|
|  Cinfv | S(rot)=       0.01159154 Eh      7.27 kcal/mol|
 --------------------------------------------------------


-------------------
GIBBS FREE ENERGY
-------------------

The Gibbs free energy is G = H - T*S

Total enthalpy                    ...  -2061.68081699 Eh 
Total entropy correction          ...     -0.09058713 Eh    -56.84 kcal/mol
-----------------------------------------------------------------------
Final Gibbs free energy         ...  -2061.77140412 Eh

For completeness - the Gibbs free energy minus the electronic energy
G-E(el)                           ...      0.41009602 Eh    257.34 kcal/mol


Maximum memory used throughout the entire PROP-calculation: 152.9 MB

--------------------------------
SUGGESTED CITATIONS FOR THIS RUN
--------------------------------

Below you find a list of papers that are relevant to this ORCA run
We neither can nor want to force you to cite these papers, but we appreciate if you do
You receive ORCA, which is the product of decades of hard work by many enthusiastic individuals, for free
The only thing we kindly ask in return is that you cite our papers,
We deeply appreciate it, if you show your appreciation for ORCA by not just citing the generic ORCA reference.

Please note that relegating all ORCA citations to the supporting information does *not* help us.
SI sections are not indexed - citations you put there will not count into any citation statistics
But we need these citations in order to attract the funding resources that allow us to do what we are doing

Therefore, if you are a happy ORCA user, please consider citing a few of the papers listed below in the main body of your paper

In addition to the list printed below, the program has created the file /cluster/scratch/rueppf/orcajob__35520377-hfCg/dppBz_tolman.bibtex that contains the list in bibtex format
You can import this file easily into all common literature databanks and citation aid programs


List of essential papers. We consider these as the minimum necessary citations

  1. Neese,F.
     Software update: the ORCA program system, version 5.0
     WIRES Comput. Molec. Sci., 2022 12(1)e1606
     doi.org/10.1002/wcms.1606

List of papers to cite with high priority. The work reported in these papers was absolutely
necessary for this run to complete.
Our perspective: the developers of density functionals and basis sets usually get cited in chemistry papers
Good! But without the algorithms to do something with them, the functionals or basis sets would not do anything.
Hence, in our opinion, the algorithm design and method developments papers are equally worthy of getting cited

  1. Neese,F.
     An improvement of the resolution of the identity approximation for the formation of the Coulomb matrix
     J. Comp. Chem., 2003 24(14)1740-1747
     doi.org/10.1002/jcc.10318
  2. Bykov,D.; Petrenko,T.; Izsak,R.; Kossmann,S.; Becker,U.; Valeev,E.; Neese,F.
     Efficient implementation of the analytic second derivatives of Hartree-Fock and hybrid DFT energies: a detailed analysis of different approximations
     Molec. Phys., 2015 113 1961-1977
     doi.org/10.1080/00268976.2015.1025114
  3. Neese,F.
     The SHARK Integral Generation and Digestion System
     J. Comp. Chem., 2022  1-16
     doi.org/10.1002/jcc.26942
  4. Grimme,S.; Antony,J.; Ehrlich,S.; Krieg,H.
     A consistent and accurate ab initio parametrization of density functional dispersion correction (DFT-D) for the 94 elements H-Pu
     J. Chem. Phys., 2010 132 154104
     doi.org/10.1063/1.3382344
  5. Grimme,S.; Ehrlich,S.; Goerigk,L.
     Effect of the damping function in dispersion corrected density functional theory
     J. Comput. Chem., 2011 32(7)1456-1465
     doi.org/10.1002/jcc.21759

List of suggested additional citations. These are papers that are important in the 'surrounding' of 
of this run, or papers that preceded the highly important papers. If you like your results we are grateful for a citation.

  1. Neese,F.
     The ORCA program system
     WIRES Comput. Molec. Sci., 2012 2(1)73-78
     doi.org/10.1002/wcms.81
  2. Neese,F.
     Software update: the ORCA program system, version 4.0
     WIRES Comput. Molec. Sci., 2018 8(1)1-6
     doi.org/10.1002/wcms.1327
  3. Neese,F.; Wennmohs,F.; Becker,U.; Riplinger,C.
     The ORCA quantum chemistry program package
     J. Chem. Phys., 2020 152 Art. No. L224108
     doi.org/10.1063/5.0004608

List of optional additional citations

  1. Neese,F.
     Approximate second-order SCF convergence for spin unrestricted wavefunctions
     Chem. Phys. Lett., 2000 325(1-3)93-98
     doi.org/10.1016/s0009-2614(00)00662-x

Timings for individual modules:

Sum of individual times          ...    43472.518 sec (= 724.542 min)
Startup calculation              ...      155.188 sec (=   2.586 min)   0.4 %
SCF iterations                   ...     4343.803 sec (=  72.397 min)  10.0 %
Property integrals               ...     2279.195 sec (=  37.987 min)   5.2 %
SCF Response                     ...    34451.552 sec (= 574.193 min)  79.2 %
Property calculations            ...      457.544 sec (=   7.626 min)   1.1 %
SCF Gradient evaluation          ...     1782.317 sec (=  29.705 min)   4.1 %
Geometry relaxation              ...        2.920 sec (=   0.049 min)   0.0 %
                             ****ORCA TERMINATED NORMALLY****
TOTAL RUN TIME: 0 days 12 hours 6 minutes 12 seconds 620 msec
