
                                 *****************
                                 * O   R   C   A *
                                 *****************

           --- An Ab Initio, DFT and Semiempirical electronic structure package ---

                  #######################################################
                  #                        -***-                        #
                  #          Department of theory and spectroscopy      #
                  #               Directorship: Frank Neese             #
                  #        Max Planck Institute fuer Kohlenforschung    #
                  #                Kaiser Wilhelm Platz 1               #
                  #                 D-45470 Muelheim/Ruhr               #
                  #                      Germany                        #
                  #                                                     #
                  #                  All rights reserved                #
                  #                        -***-                        #
                  #######################################################


                         Program Version 4.2.0 -  RELEASE  -


 With contributions from (in alphabetic order):
   Daniel Aravena         : Magnetic Suceptibility
   Michael Atanasov       : Ab Initio Ligand Field Theory (pilot matlab implementation)
   Alexander A. Auer      : GIAO ZORA, VPT2
   Ute Becker             : Parallelization
   Giovanni Bistoni       : ED, misc. LED, open-shell LED, HFLED
   Martin Brehm           : Molecular dynamics
   Dmytro Bykov           : SCF Hessian
   Vijay G. Chilkuri      : MRCI spin determinant printing, contributions to CSF-ICE
   Dipayan Datta          : RHF DLPNO-CCSD density
   Achintya Kumar Dutta   : EOM-CC, STEOM-CC
   Dmitry Ganyushin       : Spin-Orbit,Spin-Spin,Magnetic field MRCI
   Miquel Garcia          : C-PCM Hessian, Gaussian charge scheme
   Yang Guo               : DLPNO-NEVPT2, CIM, IAO-localization
   Andreas Hansen         : Spin unrestricted coupled pair/coupled cluster methods
   Benjamin Helmich-Paris : CASSCF linear response (MC-RPA)
   Lee Huntington         : MR-EOM, pCC
   Robert Izsak           : Overlap fitted RIJCOSX, COSX-SCS-MP3, EOM
   Christian Kollmar      : KDIIS, OOCD, Brueckner-CCSD(T), CCSD density
   Simone Kossmann        : Meta GGA functionals, TD-DFT gradient, OOMP2, MP2 Hessian
   Martin Krupicka        : AUTO-CI
   Lucas Lang             : DCDCAS
   Dagmar Lenk            : GEPOL surface, SMD
   Dimitrios Liakos       : Extrapolation schemes; Compound Job, initial MDCI parallelization
   Dimitrios Manganas     : Further ROCIS development; embedding schemes
   Dimitrios Pantazis     : SARC Basis sets
   Taras Petrenko         : DFT Hessian,TD-DFT gradient, ASA, ECA, R-Raman, ABS, FL, XAS/XES, NRVS
   Peter Pinski           : DLPNO-MP2, DLPNO-MP2 Gradient
   Christoph Reimann      : Effective Core Potentials
   Marius Retegan         : Local ZFS, SOC
   Christoph Riplinger    : Optimizer, TS searches, QM/MM, DLPNO-CCSD(T), (RO)-DLPNO pert. Triples
   Tobias Risthaus        : Range-separated hybrids, TD-DFT gradient, RPA, STAB
   Michael Roemelt        : Original ROCIS implementation
   Masaaki Saitow         : Open-shell DLPNO-CCSD energy and density
   Barbara Sandhoefer     : DKH picture change effects
   Avijit Sen             : IP-ROCIS
   Kantharuban Sivalingam : CASSCF convergence, NEVPT2, FIC-MRCI
   Bernardo de Souza      : ESD, SOC TD-DFT
   Georgi Stoychev        : AutoAux, RI-MP2 NMR
   Willem Van den Heuvel  : Paramagnetic NMR
   Boris Wezisla          : Elementary symmetry handling
   Frank Wennmohs         : Technical directorship


 We gratefully acknowledge several colleagues who have allowed us to
 interface, adapt or use parts of their codes:
   Stefan Grimme, W. Hujo, H. Kruse,             : VdW corrections, initial TS optimization,
                  C. Bannwarth                     DFT functionals, gCP, sTDA/sTD-DF
   Ed Valeev, F. Pavosevic, A. Kumar             : LibInt (2-el integral package), F12 methods
   Garnet Chan, S. Sharma, J. Yang, R. Olivares  : DMRG
   Ulf Ekstrom                                   : XCFun DFT Library
   Mihaly Kallay                                 : mrcc  (arbitrary order and MRCC methods)
   Andreas Klamt, Michael Diedenhofen            : otool_cosmo (COSMO solvation model)
   Jiri Pittner, Ondrej Demel                    : Mk-CCSD
   Frank Weinhold                                : gennbo (NPA and NBO analysis)
   Christopher J. Cramer and Donald G. Truhlar   : smd solvation model
   Lars Goerigk                                  : TD-DFT with DH, B97 family of functionals
   V. Asgeirsson, H. Jonsson                     : NEB implementation
   FAccTs GmbH                                   : IRC, NEB, NEB-TS, Multilevel, MM, QM/MM, CI optimization
   S Lehtola, MJT Oliveira, MAL Marques          : LibXC Library


 Your calculation uses the libint2 library for the computation of 2-el integrals
 For citations please refer to: http://libint.valeyev.net

 Your ORCA version has been built with support for libXC version: 4.2.3
 For citations please refer to: https://tddft.org/programs/libxc/

 This ORCA versions uses:
   CBLAS   interface :  Fast vector & matrix operations
   LAPACKE interface :  Fast linear algebra routines
   SCALAPACK package :  Parallel linear algebra routines




***************************************
The coordinates will be read from file: dppeRhHCO.xyz
***************************************


Your calculation utilizes the atom-pairwise dispersion correction
with the Becke-Johnson damping scheme (D3BJ)
Cite in your paper:
S.Grimme, S.Ehrlich, L.Goerigk, J Comput Chem, (2011), 32, 1456–1465 
S.Grimme, J.Antony, S.Ehrlich and H.Krieg, J.Chem.Phys., 132, (2010), 154104 
   

----- Orbital basis set information -----
Your calculation utilizes the basis: def2-SVP
   F. Weigend and R. Ahlrichs, Phys. Chem. Chem. Phys. 7, 3297 (2005).

----- AuxJ basis set information -----
Your calculation utilizes the auxiliary basis: def2/J
   F. Weigend, Phys. Chem. Chem. Phys. 8, 1057 (2006).

cite the ECPs for Rh [Def2-ECP] as follows:
Ce-Yb(ecp-28): M. Dolg, H. Stoll, H.Preuss, J. Chem. Phys., 1989, 90, 1730-1734.
Y-Cd(ecp-28), Hf-Hg(ecp-46): D. Andrae,U. Haeussermann, M. Dolg, H. Stoll, H. Preuss, Theor. Chim. Acta, 1990, 77, 123-141.
In-Sb(ecp-28), Tl-Bi(ecp-46): B. Metz, H. Stoll, M. Dolg, J. Chem. Phys., 2000, 113, 2563-2569.
Te-Xe(ecp-28), Po-Rn(ecp-46): K. A. Peterson, D. Figgen, E. Goll, H. Stoll, M. Dolg, J. Chem. Phys., 2003, 119, 11113-11123.
Rb(ecp-28), Cs(ecp-46): T. Leininger, A. Nicklass, W. Kuechle, H. Stoll, M. Dolg, A. Bergner, Chem. Phys. Lett., 1996, 255, 274-280.
Sr(ecp-28), Ba(ecp-46): M. Kaupp, P. V. Schleyer, H. Stoll and H. Preuss, J. Chem. Phys., 1991, 94, 1360-1366.
La(ecp-46): M. Dolg, H. Stoll, A. Savin, H. Preuss, Theor. Chim. Acta, 1989, 75, 173-194.
Lu(ecp-28): X. Cao, M. Dolg, J. Chem. Phys., 2001, 115, 7348-7355.

ECP parameters for Rh [Def2-ECP] have been obtained from:
TURBOMOLE (7.0.2)

================================================================================
                                        WARNINGS
                       Please study these warnings very carefully!
================================================================================


WARNING: Split-RI-J cannot be used together with RIJONX
  ===> : Split-RI-J will be disabled

WARNING: Geometry Optimization
  ===> : Switching off AutoStart
         For restart on a previous wavefunction, please use MOREAD

INFO   : the flag for use of LIBINT has been found!

================================================================================
                                       INPUT FILE
================================================================================
NAME = TEP_Rh.inp
|  1> ! PBE0 def2-SVP RIJDX D3BJ opt freq
|  2> %pal nprocs 10 end
|  3> %maxcore 3036
|  4> 
|  5> %basis
|  6>   newgto Rh "def2-TZVP" end
|  7> end
|  8> 
|  9> *xyzfile 0 1 dppeRhHCO.xyz
| 10> 
| 11>                          ****END OF INPUT****
================================================================================

                       *****************************
                       * Geometry Optimization Run *
                       *****************************

Geometry optimization settings:
Update method            Update   .... BFGS
Choice of coordinates    CoordSys .... Z-matrix Internals
Initial Hessian          InHess   .... Almoef's Model

Convergence Tolerances:
Energy Change            TolE     ....  5.0000e-06 Eh
Max. Gradient            TolMAXG  ....  3.0000e-04 Eh/bohr
RMS Gradient             TolRMSG  ....  1.0000e-04 Eh/bohr
Max. Displacement        TolMAXD  ....  4.0000e-03 bohr
RMS Displacement         TolRMSD  ....  2.0000e-03 bohr
Strict Convergence                ....  False
------------------------------------------------------------------------------
                        ORCA OPTIMIZATION COORDINATE SETUP
------------------------------------------------------------------------------

The optimization will be done in new redundant internal coordinates
Making redundant internal coordinates   ...  (new redundants) done
Evaluating the initial hessian          ...  (Almloef) done
Evaluating the coordinates              ...  done
Calculating the B-matrix                .... done
Calculating the G-matrix                .... done
Diagonalizing the G-matrix              .... done
Small eigenvalue found = 3.165e-03
Small eigenvalue found = 5.158e-03
Small eigenvalue found = 7.110e-03
Small eigenvalue found = 9.008e-03
Small eigenvalue found = 9.913e-03
Small eigenvalue found = 2.036e-02
Small eigenvalue found = 2.437e-02
Small eigenvalue found = 2.850e-02
The first mode is                       ....  167
The number of degrees of freedom        ....  162

    -----------------------------------------------------------------
                    Redundant Internal Coordinates


    -----------------------------------------------------------------
         Definition                    Initial Value    Approx d2E/dq
    -----------------------------------------------------------------
      1. B(Rh  1,H   0)                  1.5379         0.703107   
      2. B(P   2,Rh  1)                  2.2504         0.900947   
      3. B(C   3,P   2)                  1.8202         0.432410   
      4. B(C   4,C   3)                  1.3934         0.617068   
      5. B(C   5,C   4)                  1.3805         0.647045   
      6. B(C   6,C   5)                  1.3867         0.632333   
      7. B(C   7,C   6)                  1.3840         0.638648   
      8. B(C   8,C   7)                  1.3851         0.636251   
      9. B(C   8,C   3)                  1.3889         0.627247   
     10. B(C   9,P   2)                  1.8236         0.427096   
     11. B(C  10,C   9)                  1.3917         0.620996   
     12. B(C  11,C  10)                  1.3828         0.641488   
     13. B(C  12,C  11)                  1.3859         0.634392   
     14. B(C  13,C  12)                  1.3863         0.633398   
     15. B(C  14,C   9)                  1.3903         0.624042   
     16. B(C  14,C  13)                  1.3830         0.641132   
     17. B(C  15,P   2)                  1.8620         0.370881   
     18. B(C  16,C  15)                  1.5223         0.384248   
     19. B(P  17,C  16)                  1.8595         0.374197   
     20. B(P  17,Rh  1)                  2.2540         0.888950   
     21. B(C  18,P  17)                  1.8198         0.433052   
     22. B(C  19,C  18)                  1.3891         0.626767   
     23. B(C  20,C  19)                  1.3848         0.636894   
     24. B(C  21,C  20)                  1.3842         0.638278   
     25. B(C  22,C  21)                  1.3868         0.632233   
     26. B(C  23,C  22)                  1.3804         0.647301   
     27. B(C  23,C  18)                  1.3937         0.616254   
     28. B(C  24,P  17)                  1.8254         0.424234   
     29. B(C  25,C  24)                  1.3903         0.624098   
     30. B(C  26,C  25)                  1.3830         0.641159   
     31. B(C  27,C  26)                  1.3863         0.633287   
     32. B(C  28,C  27)                  1.3859         0.634289   
     33. B(C  29,C  28)                  1.3828         0.641462   
     34. B(C  29,C  24)                  1.3921         0.620072   
     35. B(C  30,Rh  1)                  1.8344         1.235706   
     36. B(O  31,C  30)                  1.1510         1.346555   
     37. B(H  32,C   4)                  1.0829         0.369681   
     38. B(H  33,C   5)                  1.0801         0.373429   
     39. B(H  34,C   6)                  1.0801         0.373474   
     40. B(H  35,C   7)                  1.0807         0.372661   
     41. B(H  36,C   8)                  1.0804         0.373083   
     42. B(H  37,C  10)                  1.0973         0.350631   
     43. B(H  38,C  11)                  1.0802         0.373350   
     44. B(H  39,C  12)                  1.0802         0.373282   
     45. B(H  40,C  13)                  1.0806         0.372808   
     46. B(H  41,C  14)                  1.0821         0.370718   
     47. B(H  42,C  15)                  1.0941         0.354656   
     48. B(H  43,C  15)                  1.0959         0.352433   
     49. B(H  44,C  16)                  1.0959         0.352422   
     50. B(H  45,C  16)                  1.0945         0.354180   
     51. B(H  46,C  19)                  1.0804         0.373025   
     52. B(H  47,C  20)                  1.0807         0.372672   
     53. B(H  48,C  21)                  1.0800         0.373566   
     54. B(H  49,C  22)                  1.0801         0.373490   
     55. B(H  50,C  23)                  1.0835         0.368865   
     56. B(H  51,C  25)                  1.0821         0.370756   
     57. B(H  52,C  26)                  1.0806         0.372791   
     58. B(H  53,C  27)                  1.0802         0.373283   
     59. B(H  54,C  28)                  1.0802         0.373366   
     60. B(H  55,C  29)                  1.0979         0.349741   
     61. A(P   2,Rh  1,C  30)          172.1938         0.710387   
     62. A(H   0,Rh  1,P  17)          170.6539         0.583567   
     63. A(H   0,Rh  1,P   2)           91.9602         0.585069   
     64. A(H   0,Rh  1,C  30)           88.1214         0.591086   
     65. A(P  17,Rh  1,C  30)           97.8782         0.708505   
     66. A(P   2,Rh  1,P  17)           83.0707         0.701081   
     67. A(Rh  1,P   2,C   9)          106.7033         0.547979   
     68. A(C   3,P   2,C   9)          100.6240         0.433092   
     69. A(C   3,P   2,C  15)          103.4431         0.422274   
     70. A(Rh  1,P   2,C   3)          130.8348         0.549265   
     71. A(C   9,P   2,C  15)           99.3515         0.421343   
     72. A(Rh  1,P   2,C  15)          111.2317         0.533550   
     73. A(C   4,C   3,C   8)          119.4523         0.434604   
     74. A(P   2,C   3,C   4)          115.4617         0.433691   
     75. A(P   2,C   3,C   8)          125.0467         0.434970   
     76. A(C   5,C   4,H  32)          120.8144         0.357060   
     77. A(C   3,C   4,H  32)          118.7092         0.354198   
     78. A(C   3,C   4,C   5)          120.4758         0.437043   
     79. A(C   4,C   5,C   6)          119.8326         0.438974   
     80. A(C   4,C   5,H  33)          120.0934         0.357673   
     81. A(C   6,C   5,H  33)          120.0735         0.356278   
     82. A(C   5,C   6,C   7)          119.9612         0.437940   
     83. A(C   5,C   6,H  34)          120.0620         0.356285   
     84. A(C   7,C   6,H  34)          119.9755         0.356887   
     85. A(C   6,C   7,H  35)          119.9830         0.356755   
     86. A(C   8,C   7,H  35)          119.6557         0.356527   
     87. A(C   6,C   7,C   8)          120.3613         0.438429   
     88. A(C   7,C   8,H  36)          119.5070         0.356596   
     89. A(C   3,C   8,H  36)          120.5907         0.355734   
     90. A(C   3,C   8,C   7)          119.9023         0.437007   
     91. A(P   2,C   9,C  10)          117.1571         0.433222   
     92. A(C  10,C   9,C  14)          119.8482         0.434700   
     93. A(P   2,C   9,C  14)          122.9766         0.433603   
     94. A(C   9,C  10,C  11)          120.1830         0.436864   
     95. A(C  11,C  10,H  37)          121.3920         0.353353   
     96. A(C   9,C  10,H  37)          118.4186         0.351417   
     97. A(C  10,C  11,C  12)          119.7816         0.438548   
     98. A(C  12,C  11,H  38)          120.0945         0.356462   
     99. A(C  10,C  11,H  38)          120.1235         0.357136   
    100. A(C  13,C  12,H  39)          119.8204         0.356356   
    101. A(C  11,C  12,H  39)          119.9731         0.356451   
    102. A(C  11,C  12,C  13)          120.2056         0.437545   
    103. A(C  12,C  13,C  14)          120.1867         0.438380   
    104. A(C  14,C  13,H  40)          119.8665         0.357014   
    105. A(C  12,C  13,H  40)          119.9467         0.356279   
    106. A(C   9,C  14,C  13)          119.7932         0.437205   
    107. A(C  13,C  14,H  41)          120.3239         0.356673   
    108. A(C   9,C  14,H  41)          119.8791         0.355041   
    109. A(P   2,C  15,C  16)          107.4361         0.388075   
    110. A(H  42,C  15,H  43)          109.1184         0.289167   
    111. A(C  16,C  15,H  43)          109.4885         0.324673   
    112. A(C  16,C  15,H  42)          111.8430         0.325009   
    113. A(P   2,C  15,H  42)          110.9534         0.343017   
    114. A(P   2,C  15,H  43)          107.9085         0.342656   
    115. A(C  15,C  16,P  17)          107.0654         0.388678   
    116. A(C  15,C  16,H  45)          111.9138         0.324937   
    117. A(H  44,C  16,H  45)          109.1935         0.289105   
    118. A(C  15,C  16,H  44)          109.5738         0.324672   
    119. A(P  17,C  16,H  45)          111.0282         0.343452   
    120. A(P  17,C  16,H  44)          107.9690         0.343166   
    121. A(C  16,P  17,C  18)          103.7858         0.423059   
    122. A(Rh  1,P  17,C  18)          130.5606         0.548025   
    123. A(Rh  1,P  17,C  16)          111.1276         0.533097   
    124. A(C  18,P  17,C  24)          100.7809         0.432684   
    125. A(C  16,P  17,C  24)           99.0342         0.421507   
    126. A(Rh  1,P  17,C  24)          106.8698         0.545893   
    127. A(P  17,C  18,C  19)          124.7697         0.435026   
    128. A(C  19,C  18,C  23)          119.4359         0.434441   
    129. A(P  17,C  18,C  23)          115.6784         0.433704   
    130. A(C  20,C  19,H  46)          119.6264         0.356647   
    131. A(C  18,C  19,H  46)          120.4557         0.355678   
    132. A(C  18,C  19,C  20)          119.9179         0.437026   
    133. A(C  21,C  20,H  47)          119.9801         0.356722   
    134. A(C  19,C  20,H  47)          119.6727         0.356590   
    135. A(C  19,C  20,C  21)          120.3470         0.438463   
    136. A(C  22,C  21,H  48)          120.0289         0.356290   
    137. A(C  20,C  21,H  48)          119.9872         0.356867   
    138. A(C  20,C  21,C  22)          119.9827         0.437882   
    139. A(C  23,C  22,H  49)          120.0784         0.357707   
    140. A(C  21,C  22,H  49)          120.1007         0.356278   
    141. A(C  21,C  22,C  23)          119.8202         0.438992   
    142. A(C  22,C  23,H  50)          120.6424         0.356950   
    143. A(C  18,C  23,H  50)          118.8766         0.353986   
    144. A(C  18,C  23,C  22)          120.4810         0.436970   
    145. A(C  25,C  24,C  29)          119.8548         0.434590   
    146. A(P  17,C  24,C  29)          116.8153         0.432583   
    147. A(P  17,C  24,C  25)          123.3065         0.433086   
    148. A(C  26,C  25,H  51)          120.3714         0.356682   
    149. A(C  24,C  25,H  51)          119.8480         0.355053   
    150. A(C  24,C  25,C  26)          119.7771         0.437216   
    151. A(C  27,C  26,H  52)          119.9424         0.356266   
    152. A(C  25,C  26,H  52)          119.8586         0.357014   
    153. A(C  25,C  26,C  27)          120.1989         0.438370   
    154. A(C  28,C  27,H  53)          119.9630         0.356441   
    155. A(C  26,C  27,H  53)          119.8180         0.356345   
    156. A(C  26,C  27,C  28)          120.2183         0.437519   
    157. A(C  29,C  28,H  54)          120.1167         0.357136   
    158. A(C  27,C  28,H  54)          120.1188         0.356455   
    159. A(C  27,C  28,C  29)          119.7640         0.438532   
    160. A(C  28,C  29,H  55)          121.2134         0.353198   
    161. A(C  24,C  29,H  55)          118.5977         0.351178   
    162. A(C  24,C  29,C  28)          120.1854         0.436743   
    163. L(Rh  1,C  30,O  31,P  17, 2) 176.4656         0.639680   
    164. L(Rh  1,C  30,O  31,P  17, 1) 178.0445         0.639680   
    165. D(C  15,P   2,Rh  1,P  17)     11.2023         0.002578   
    166. D(C  15,P   2,Rh  1,H   0)   -160.8556         0.002578   
    167. D(C   9,P   2,Rh  1,P  17)    -96.1704         0.002578   
    168. D(C   3,P   2,Rh  1,P  17)    142.9160         0.002578   
    169. D(C  15,P   2,Rh  1,C  30)    108.6779         0.002578   
    170. D(C   9,P   2,Rh  1,C  30)      1.3053         0.002578   
    171. D(C   3,P   2,Rh  1,H   0)    -29.1418         0.002578   
    172. D(C   3,P   2,Rh  1,C  30)   -119.6083         0.002578   
    173. D(C   9,P   2,Rh  1,H   0)     91.7717         0.002578   
    174. D(C   8,C   3,P   2,Rh  1)   -116.3894         0.004043   
    175. D(C   4,C   3,P   2,Rh  1)     61.3091         0.004043   
    176. D(C   8,C   3,P   2,C  15)     17.9337         0.004043   
    177. D(C   8,C   3,P   2,C   9)    120.3386         0.004043   
    178. D(C   4,C   3,P   2,C  15)   -164.3678         0.004043   
    179. D(C   4,C   3,P   2,C   9)    -61.9629         0.004043   
    180. D(C   5,C   4,C   3,P   2)   -179.2288         0.026333   
    181. D(H  32,C   4,C   3,P   2)      0.5106         0.026333   
    182. D(H  32,C   4,C   3,C   8)    178.3468         0.026333   
    183. D(C   5,C   4,C   3,C   8)     -1.3926         0.026333   
    184. D(H  33,C   5,C   4,H  32)      0.6458         0.029132   
    185. D(C   6,C   5,C   4,C   3)      0.6276         0.029132   
    186. D(H  33,C   5,C   4,C   3)   -179.6203         0.029132   
    187. D(C   6,C   5,C   4,H  32)   -179.1063         0.029132   
    188. D(H  34,C   6,C   5,H  33)      0.1631         0.027737   
    189. D(C   7,C   6,C   5,H  33)   -179.4354         0.027737   
    190. D(C   7,C   6,C   5,C   4)      0.3167         0.027737   
    191. D(H  34,C   6,C   5,C   4)    179.9153         0.027737   
    192. D(H  35,C   7,C   6,H  34)     -0.1499         0.028330   
    193. D(H  35,C   7,C   6,C   5)    179.4490         0.028330   
    194. D(C   8,C   7,C   6,H  34)    179.9118         0.028330   
    195. D(C   8,C   7,C   6,C   5)     -0.4893         0.028330   
    196. D(C   7,C   8,C   3,P   2)    178.8283         0.027264   
    197. D(H  36,C   8,C   7,C   6)    179.6592         0.028104   
    198. D(H  36,C   8,C   7,H  35)     -0.2793         0.028104   
    199. D(C   3,C   8,C   7,H  35)    179.7779         0.028104   
    200. D(H  36,C   8,C   3,C   4)   -178.7275         0.027264   
    201. D(C   7,C   8,C   3,C   4)      1.2147         0.027264   
    202. D(C   3,C   8,C   7,C   6)     -0.2836         0.028104   
    203. D(H  36,C   8,C   3,P   2)     -1.1139         0.027264   
    204. D(C  14,C   9,P   2,C  15)     66.1022         0.003979   
    205. D(C  14,C   9,P   2,C   3)    -39.5984         0.003979   
    206. D(C  10,C   9,P   2,C  15)   -112.3434         0.003979   
    207. D(C  10,C   9,P   2,C   3)    141.9560         0.003979   
    208. D(C  10,C   9,P   2,Rh  1)      3.2894         0.003979   
    209. D(C  14,C   9,P   2,Rh  1)   -178.2650         0.003979   
    210. D(H  37,C  10,C   9,C  14)    178.6376         0.026690   
    211. D(H  37,C  10,C   9,P   2)     -2.8658         0.026690   
    212. D(C  11,C  10,C   9,C  14)     -0.4527         0.026690   
    213. D(C  11,C  10,C   9,P   2)    178.0439         0.026690   
    214. D(H  38,C  11,C  10,H  37)      0.9317         0.028600   
    215. D(H  38,C  11,C  10,C   9)    179.9944         0.028600   
    216. D(C  12,C  11,C  10,H  37)   -178.8372         0.028600   
    217. D(C  12,C  11,C  10,C   9)      0.2255         0.028600   
    218. D(H  39,C  12,C  11,H  38)      0.0536         0.027929   
    219. D(H  39,C  12,C  11,C  10)    179.8226         0.027929   
    220. D(C  13,C  12,C  11,H  38)   -179.6031         0.027929   
    221. D(C  13,C  12,C  11,C  10)      0.1659         0.027929   
    222. D(H  40,C  13,C  12,H  39)     -0.1017         0.027836   
    223. D(H  40,C  13,C  12,C  11)    179.5555         0.027836   
    224. D(C  14,C  13,C  12,H  39)   -179.9879         0.027836   
    225. D(C  14,C  13,C  12,C  11)     -0.3307         0.027836   
    226. D(C  13,C  14,C   9,C  10)      0.2877         0.026969   
    227. D(C  13,C  14,C   9,P   2)   -178.1177         0.026969   
    228. D(H  41,C  14,C  13,H  40)     -0.4953         0.028566   
    229. D(H  41,C  14,C  13,C  12)    179.3910         0.028566   
    230. D(C   9,C  14,C  13,H  40)   -179.7842         0.028566   
    231. D(C   9,C  14,C  13,C  12)      0.1021         0.028566   
    232. D(H  41,C  14,C   9,C  10)   -179.0044         0.026969   
    233. D(H  41,C  14,C   9,P   2)      2.5902         0.026969   
    234. D(H  43,C  15,P   2,C   9)   -168.4613         0.003501   
    235. D(H  43,C  15,P   2,C   3)    -65.0775         0.003501   
    236. D(H  43,C  15,P   2,Rh  1)     79.4231         0.003501   
    237. D(H  42,C  15,P   2,C   9)    -48.9683         0.003501   
    238. D(H  42,C  15,P   2,C   3)     54.4154         0.003501   
    239. D(H  42,C  15,P   2,Rh  1)   -161.0840         0.003501   
    240. D(C  16,C  15,P   2,C   9)     73.5703         0.003501   
    241. D(C  16,C  15,P   2,C   3)    176.9540         0.003501   
    242. D(C  16,C  15,P   2,Rh  1)    -38.5454         0.003501   
    243. D(H  45,C  16,C  15,H  42)    -68.9311         0.011754   
    244. D(H  45,C  16,C  15,P   2)    169.0826         0.011754   
    245. D(H  44,C  16,C  15,H  43)    173.4177         0.011754   
    246. D(H  44,C  16,C  15,H  42)     52.3432         0.011754   
    247. D(H  44,C  16,C  15,P   2)    -69.6432         0.011754   
    248. D(P  17,C  16,C  15,H  43)    -69.7322         0.011754   
    249. D(P  17,C  16,C  15,H  42)    169.1932         0.011754   
    250. D(H  45,C  16,C  15,H  43)     52.1435         0.011754   
    251. D(P  17,C  16,C  15,P   2)     47.2069         0.011754   
    252. D(C  24,P  17,C  16,H  45)    -50.1514         0.003538   
    253. D(C  24,P  17,C  16,H  44)   -169.8182         0.003538   
    254. D(C  18,P  17,C  16,H  45)     53.3833         0.003538   
    255. D(C  18,P  17,C  16,H  44)    -66.2836         0.003538   
    256. D(C  18,P  17,C  16,C  15)    175.8131         0.003538   
    257. D(Rh  1,P  17,C  16,H  45)   -162.2659         0.003538   
    258. D(Rh  1,P  17,C  16,H  44)     78.0673         0.003538   
    259. D(Rh  1,P  17,C  16,C  15)    -39.8360         0.003538   
    260. D(C  24,P  17,Rh  1,C  30)     93.6993         0.002551   
    261. D(C  24,P  17,Rh  1,P   2)    -94.1143         0.002551   
    262. D(C  24,P  17,Rh  1,H   0)    -35.8669         0.002551   
    263. D(C  18,P  17,Rh  1,C  30)    -27.4213         0.002551   
    264. D(C  18,P  17,Rh  1,P   2)    144.7651         0.002551   
    265. D(C  18,P  17,Rh  1,H   0)   -156.9875         0.002551   
    266. D(C  24,P  17,C  16,C  15)     72.2784         0.003538   
    267. D(C  16,P  17,Rh  1,C  30)   -159.2576         0.002551   
    268. D(C  16,P  17,Rh  1,P   2)     12.9288         0.002551   
    269. D(C  16,P  17,Rh  1,H   0)     71.1762         0.002551   
    270. D(C  23,C  18,P  17,C  24)    -60.4023         0.004051   
    271. D(C  23,C  18,P  17,C  16)   -162.6012         0.004051   
    272. D(C  23,C  18,P  17,Rh  1)     63.0899         0.004051   
    273. D(C  19,C  18,P  17,C  24)    123.5511         0.004051   
    274. D(C  19,C  18,P  17,C  16)     21.3522         0.004051   
    275. D(C  19,C  18,P  17,Rh  1)   -112.9566         0.004051   
    276. D(H  46,C  19,C  18,C  23)   -178.6799         0.027220   
    277. D(H  46,C  19,C  18,P  17)     -2.7713         0.027220   
    278. D(C  20,C  19,C  18,C  23)      1.3292         0.027220   
    279. D(C  20,C  19,C  18,P  17)    177.2379         0.027220   
    280. D(H  47,C  20,C  19,H  46)     -0.2919         0.028165   
    281. D(H  47,C  20,C  19,C  18)    179.6990         0.028165   
    282. D(C  21,C  20,C  19,H  46)    179.5637         0.028165   
    283. D(C  21,C  20,C  19,C  18)     -0.4454         0.028165   
    284. D(H  48,C  21,C  20,H  47)     -0.0866         0.028295   
    285. D(H  48,C  21,C  20,C  19)   -179.9418         0.028295   
    286. D(C  22,C  21,C  20,H  47)    179.5034         0.028295   
    287. D(C  22,C  21,C  20,C  19)     -0.3517         0.028295   
    288. D(H  49,C  22,C  21,H  48)      0.1539         0.027727   
    289. D(H  49,C  22,C  21,C  20)   -179.4360         0.027727   
    290. D(C  23,C  22,C  21,H  48)    179.8397         0.027727   
    291. D(C  23,C  22,C  21,C  20)      0.2498         0.027727   
    292. D(H  50,C  23,C  22,C  21)   -179.3903         0.029157   
    293. D(C  18,C  23,C  22,H  49)   -179.6653         0.029157   
    294. D(C  18,C  23,C  22,C  21)      0.6488         0.029157   
    295. D(H  50,C  23,C  18,C  19)    178.6010         0.026260   
    296. D(H  50,C  23,C  18,P  17)      2.3296         0.026260   
    297. D(C  22,C  23,C  18,C  19)     -1.4375         0.026260   
    298. D(H  50,C  23,C  22,H  49)      0.2956         0.029157   
    299. D(C  22,C  23,C  18,P  17)   -177.7089         0.026260   
    300. D(C  29,C  24,P  17,C  18)    143.8611         0.003945   
    301. D(C  29,C  24,P  17,C  16)   -110.1235         0.003945   
    302. D(C  29,C  24,P  17,Rh  1)      5.3187         0.003945   
    303. D(C  25,C  24,P  17,C  18)    -37.9030         0.003945   
    304. D(C  25,C  24,P  17,C  16)     68.1124         0.003945   
    305. D(C  25,C  24,P  17,Rh  1)   -176.4454         0.003945   
    306. D(H  51,C  25,C  24,C  29)   -179.1830         0.026974   
    307. D(H  51,C  25,C  24,P  17)      2.6322         0.026974   
    308. D(C  26,C  25,C  24,C  29)      0.1460         0.026974   
    309. D(C  26,C  25,C  24,P  17)   -178.0387         0.026974   
    310. D(H  52,C  26,C  25,H  51)     -0.4106         0.028569   
    311. D(H  52,C  26,C  25,C  24)   -179.7360         0.028569   
    312. D(C  27,C  26,C  25,H  51)    179.5215         0.028569   
    313. D(C  27,C  26,C  25,C  24)      0.1960         0.028569   
    314. D(H  53,C  27,C  26,H  52)     -0.0587         0.027826   
    315. D(H  53,C  27,C  26,C  25)   -179.9907         0.027826   
    316. D(C  28,C  27,C  26,H  52)    179.6415         0.027826   
    317. D(C  28,C  27,C  26,C  25)     -0.2905         0.027826   
    318. D(H  54,C  28,C  27,H  53)     -0.0094         0.027920   
    319. D(H  54,C  28,C  27,C  26)   -179.7091         0.027920   
    320. D(C  29,C  28,C  27,H  53)    179.7393         0.027920   
    321. D(C  29,C  28,C  27,C  26)      0.0396         0.027920   
    322. D(H  55,C  29,C  28,H  54)      0.7457         0.028597   
    323. D(H  55,C  29,C  28,C  27)   -179.0030         0.028597   
    324. D(C  24,C  29,C  28,H  54)   -179.9478         0.028597   
    325. D(C  24,C  29,C  28,C  27)      0.3034         0.028597   
    326. D(H  55,C  29,C  24,C  25)    178.9276         0.026606   
    327. D(H  55,C  29,C  24,P  17)     -2.7723         0.026606   
    328. D(C  28,C  29,C  24,C  25)     -0.3968         0.026606   
    329. D(C  28,C  29,C  24,P  17)    177.9033         0.026606   
    -----------------------------------------------------------------

Number of atoms                         .... 56
Number of degrees of freedom            .... 329

         *************************************************************
         *                GEOMETRY OPTIMIZATION CYCLE   1            *
         *************************************************************
---------------------------------
CARTESIAN COORDINATES (ANGSTROEM)
---------------------------------
  H      1.031024    1.399351   -1.148574
  Rh     1.500219    0.239173   -0.254792
  P      3.009688    1.546713    0.782505
  C      3.928388    3.002904    0.192097
  C      3.145940    4.092619   -0.184503
  C      3.735247    5.245647   -0.662997
  C      5.114989    5.316806   -0.782514
  C      5.896383    4.230716   -0.428432
  C      5.308767    3.073542    0.055336
  C      2.179181    2.244722    2.248244
  C      0.876770    1.824366    2.500722
  C      0.202479    2.282709    3.617617
  C      0.826257    3.166690    4.483679
  C      2.120638    3.594035    4.231251
  C      2.799571    3.135310    3.117141
  C      4.315239    0.526311    1.631768
  C      3.624512   -0.690358    2.231856
  P      2.520304   -1.396808    0.912929
  C      1.844241   -2.904633    1.675172
  C      1.783374   -3.142228    3.042492
  C      1.195010   -4.302798    3.516326
  C      0.658002   -5.224946    2.634712
  C      0.701187   -4.985161    1.269503
  C      1.285092   -3.828330    0.793885
  C      3.797767   -2.109472   -0.178960
  C      4.586465   -3.197478    0.177616
  C      5.561435   -3.653040   -0.690993
  C      5.755975   -3.025756   -1.911881
  C      4.970791   -1.942091   -2.272248
  C      3.991357   -1.486683   -1.408799
  C      0.110899   -0.756225   -0.921012
  O     -0.775061   -1.398442   -1.277912
  H      2.069359    4.014543   -0.098210
  H      3.123126    6.088887   -0.947394
  H      5.579871    6.216610   -1.157740
  H      6.971030    4.282613   -0.529832
  H      5.931488    2.232065    0.322374
  H      0.401762    1.138967    1.787587
  H     -0.808421    1.955885    3.812606
  H      0.301382    3.528929    5.355545
  H      2.600406    4.288925    4.905461
  H      3.806403    3.475007    2.912654
  H      4.837909    1.114087    2.392355
  H      5.035144    0.200555    0.872476
  H      2.992085   -0.377183    3.070236
  H      4.343960   -1.436707    2.583020
  H      2.192570   -2.427081    3.741341
  H      1.154170   -4.485911    4.580574
  H      0.199661   -6.127718    3.010665
  H      0.274634   -5.699092    0.580383
  H      1.317390   -3.622881   -0.269421
  H      4.427042   -3.689771    1.127927
  H      6.172306   -4.501219   -0.417014
  H      6.519173   -3.386812   -2.585696
  H      5.120608   -1.457487   -3.225895
  H      3.345083   -0.640556   -1.676915

----------------------------
CARTESIAN COORDINATES (A.U.)
----------------------------
  NO LB      ZA    FRAG     MASS         X           Y           Z
   0 H     1.0000    0     1.008    1.948352    2.644390   -2.170490
   1 Rh   17.0000*   0   102.910    2.835003    0.451971   -0.481487
   2 P    15.0000    0    30.974    5.687486    2.922865    1.478720
   3 C     6.0000    0    12.011    7.423578    5.674667    0.363010
   4 C     6.0000    0    12.011    5.944965    7.733929   -0.348660
   5 C     6.0000    0    12.011    7.058594    9.912836   -1.252882
   6 C     6.0000    0    12.011    9.665929   10.047307   -1.478738
   7 C     6.0000    0    12.011   11.142549    7.994894   -0.809620
   8 C     6.0000    0    12.011   10.032116    5.808152    0.104570
   9 C     6.0000    0    12.011    4.118056    4.241910    4.248565
  10 C     6.0000    0    12.011    1.656855    3.447552    4.725680
  11 C     6.0000    0    12.011    0.382630    4.313695    6.836306
  12 C     6.0000    0    12.011    1.561399    5.984177    8.472925
  13 C     6.0000    0    12.011    4.007425    6.791742    7.995905
  14 C     6.0000    0    12.011    5.290423    5.924878    5.890543
  15 C     6.0000    0    12.011    8.154620    0.994584    3.083595
  16 C     6.0000    0    12.011    6.849336   -1.304588    4.217597
  17 P    15.0000    0    30.974    4.762685   -2.639584    1.725186
  18 C     6.0000    0    12.011    3.485110   -5.488960    3.165617
  19 C     6.0000    0    12.011    3.370089   -5.937950    5.749476
  20 C     6.0000    0    12.011    2.258242   -8.131110    6.644894
  21 C     6.0000    0    12.011    1.243443   -9.873717    4.978884
  22 C     6.0000    0    12.011    1.325052   -9.420588    2.399013
  23 C     6.0000    0    12.011    2.428471   -7.234494    1.500225
  24 C     6.0000    0    12.011    7.176740   -3.986325   -0.338185
  25 C     6.0000    0    12.011    8.667162   -6.042359    0.335646
  26 C     6.0000    0    12.011   10.509589   -6.903246   -1.305788
  27 C     6.0000    0    12.011   10.877215   -5.717849   -3.612931
  28 C     6.0000    0    12.011    9.393433   -3.670021   -4.293926
  29 C     6.0000    0    12.011    7.542571   -2.809423   -2.662245
  30 C     6.0000    0    12.011    0.209568   -1.429058   -1.740461
  31 O     8.0000    0    15.999   -1.464653   -2.642673   -2.414903
  32 H     1.0000    0     1.008    3.910523    7.586386   -0.185590
  33 H     1.0000    0     1.008    5.901852   11.506330   -1.790315
  34 H     1.0000    0     1.008   10.544428   11.747691   -2.187812
  35 H     1.0000    0     1.008   13.173337    8.092966   -1.001238
  36 H     1.0000    0     1.008   11.208888    4.217991    0.609199
  37 H     1.0000    0     1.008    0.759221    2.152336    3.378051
  38 H     1.0000    0     1.008   -1.527695    3.696087    7.204781
  39 H     1.0000    0     1.008    0.569530    6.668710   10.120513
  40 H     1.0000    0     1.008    4.914055    8.104893    9.269978
  41 H     1.0000    0     1.008    7.193058    6.566812    5.504118
  42 H     1.0000    0     1.008    9.142323    2.105319    4.520896
  43 H     1.0000    0     1.008    9.515044    0.378993    1.648741
  44 H     1.0000    0     1.008    5.654220   -0.712772    5.801904
  45 H     1.0000    0     1.008    8.208894   -2.714983    4.881201
  46 H     1.0000    0     1.008    4.143357   -4.586519    7.070109
  47 H     1.0000    0     1.008    2.181066   -8.477143    8.656031
  48 H     1.0000    0     1.008    0.377305  -11.579708    5.689332
  49 H     1.0000    0     1.008    0.518983  -10.769724    1.096765
  50 H     1.0000    0     1.008    2.489506   -6.846253   -0.509133
  51 H     1.0000    0     1.008    8.365897   -6.972656    2.131472
  52 H     1.0000    0     1.008   11.663969   -8.506070   -0.788043
  53 H     1.0000    0     1.008   12.319452   -6.400146   -4.886257
  54 H     1.0000    0     1.008    9.676547   -2.754252   -6.096057
  55 H     1.0000    0     1.008    6.321291   -1.210476   -3.168909
* core charge reduced due to ECP

--------------------------------
INTERNAL COORDINATES (ANGSTROEM)
--------------------------------
 H      0   0   0     0.000000000000     0.00000000     0.00000000
 Rh     1   0   0     1.537856542342     0.00000000     0.00000000
 P      2   1   0     2.250365488480    91.96016861     0.00000000
 C      3   2   1     1.820187806686   130.83476442   330.85816054
 C      4   3   2     1.393387927220   115.46173358    61.30912896
 C      5   4   3     1.380475361458   120.47582729   180.77118762
 C      6   5   4     1.386736007693   119.83255353     0.62755061
 C      7   6   5     1.384030955908   119.96123721     0.31674837
 C      8   7   6     1.385054660126   120.36131865   359.51069958
 C      3   2   1     1.823553715529   106.70329291    91.77172719
 C     10   3   2     1.391660794268   117.15706906     3.28944556
 C     11  10   3     1.382823409797   120.18298727   178.04392185
 C     12  11  10     1.385851169102   119.78156100     0.22554327
 C     13  12  11     1.386277967075   120.20561344     0.16590269
 C     14  13  12     1.382974537268   120.18666319   359.66927868
 C      3   2   1     1.861969735808   111.23172847   199.14440259
 C     16   3   2     1.522331599667   107.43609202   321.45462626
 P     17  16   3     1.859546590821   107.06542287    47.20689752
 C     18  17  16     1.819783687607   103.78576447   175.81308586
 C     19  18  17     1.389142918086   124.76968856    21.35220087
 C     20  19  18     1.384779651667   119.91790452   177.23789315
 C     21  20  19     1.384188962477   120.34701483   359.55455154
 C     22  21  20     1.386779146435   119.98266402   359.64829668
 C     23  22  21     1.380367760632   119.82020461     0.24980627
 C     18  17  16     1.825383457363    99.03418517    72.27844787
 C     25  18  17     1.390304652723   123.30652133    68.11241933
 C     26  25  18     1.382962803903   119.77711450   181.96125151
 C     27  26  25     1.386325567369   120.19894508     0.19602008
 C     28  27  26     1.385895497663   120.21831216   359.70949324
 C     29  28  27     1.382834339946   119.76400425     0.03960096
 C      2   1   3     1.834360182781    88.12135672   172.18985790
 O     31   2   1     1.150975391751   176.75430074   226.97525312
 H      5   4   3     1.082851839421   118.70921584     0.51062128
 H      6   5   4     1.080105924655   120.09344891   180.37967516
 H      7   6   5     1.080073174966   120.06203190   179.91525379
 H      8   7   6     1.080666829427   119.98296814   179.44900506
 H      9   8   7     1.080358490719   119.50695323   179.65918050
 H     11  10   3     1.097253317893   118.41857173   357.13422418
 H     12  11  10     1.080164158667   120.12351018   179.99443292
 H     13  12  11     1.080213205777   119.97305098   179.82257445
 H     14  13  12     1.080559408438   119.94670395   179.55545669
 H     15  14  13     1.082089878091   120.32386572   179.39098819
 H     16   3   2     1.094146352349   110.95337581   198.91602266
 H     16   3   2     1.095858408383   107.90854069    79.42306561
 H     17  16   3     1.095866688433   109.57377648   290.35683950
 H     17  16   3     1.094512621584   111.91376769   169.08260595
 H     20  19  18     1.080400520149   120.45565967   357.22870911
 H     21  20  19     1.080658258405   119.67272516   179.69898567
 H     22  21  20     1.080006272757   119.98716657   180.05824469
 H     23  22  21     1.080061703977   120.10068568   180.56399930
 H     24  23  22     1.083453755880   120.64238384   180.60967786
 H     26  25  18     1.082061556798   119.84801330     2.63224753
 H     27  26  25     1.080571507682   119.85857638   180.26398583
 H     28  27  26     1.080212765806   119.81797388   180.00930806
 H     29  28  27     1.080152097276   120.11882527   180.29087611
 H     30  29  28     1.097945760322   121.21336772   180.99701064

---------------------------
INTERNAL COORDINATES (A.U.)
---------------------------
 H      0   0   0     0.000000000000     0.00000000     0.00000000
 Rh     1   0   0     2.906127698286     0.00000000     0.00000000
 P      2   1   0     4.252574474456    91.96016861     0.00000000
 C      3   2   1     3.439656466939   130.83476442   330.85816054
 C      4   3   2     2.633121580758   115.46173358    61.30912896
 C      5   4   3     2.608720367782   120.47582729   180.77118762
 C      6   5   4     2.620551274587   119.83255353     0.62755061
 C      7   6   5     2.615439467535   119.96123721     0.31674837
 C      8   7   6     2.617373988149   120.36131865   359.51069958
 C      3   2   1     3.446017112844   106.70329291    91.77172719
 C     10   3   2     2.629857772482   117.15706906     3.28944556
 C     11  10   3     2.613157536091   120.18298727   178.04392185
 C     12  11  10     2.618879171978   119.78156100     0.22554327
 C     13  12  11     2.619685703261   120.20561344     0.16590269
 C     14  13  12     2.613443125624   120.18666319   359.66927868
 C      3   2   1     3.518612870327   111.23172847   199.14440259
 C     16   3   2     2.876789808386   107.43609202   321.45462626
 P     17  16   3     3.514033789919   107.06542287    47.20689752
 C     18  17  16     3.438892792555   103.78576447   175.81308586
 C     19  18  17     2.625099676059   124.76968856    21.35220087
 C     20  19  18     2.616854297478   119.91790452   177.23789315
 C     21  20  19     2.615738056679   120.34701483   359.55455154
 C     22  21  20     2.620632794994   119.98266402   359.64829668
 C     23  22  21     2.608517031689   119.82020461     0.24980627
 C     18  17  16     3.449474823806    99.03418517    72.27844787
 C     25  18  17     2.627295036362   123.30652133    68.11241933
 C     26  25  18     2.613420952776   119.77711450   181.96125151
 C     27  26  25     2.619775654780   120.19894508     0.19602008
 C     28  27  26     2.618962940818   120.21831216   359.70949324
 C     29  28  27     2.613178191080   119.76400425     0.03960096
 C      2   1   3     3.466438376426    88.12135672   172.18985790
 O     31   2   1     2.175028277293   176.75430074   226.97525312
 H      5   4   3     2.046293420118   118.70921584     0.51062128
 H      6   5   4     2.041104393224   120.09344891   180.37967516
 H      7   6   5     2.041042505280   120.06203190   179.91525379
 H      8   7   6     2.042164349630   119.98296814   179.44900506
 H      9   8   7     2.041581673915   119.50695323   179.65918050
 H     11  10   3     2.073508270354   118.41857173   357.13422418
 H     12  11  10     2.041214439558   120.12351018   179.99443292
 H     13  12  11     2.041307125163   119.97305098   179.82257445
 H     14  13  12     2.041961353379   119.94670395   179.55545669
 H     15  14  13     2.044853521879   120.32386572   179.39098819
 H     16   3   2     2.067636956368   110.95337581   198.91602266
 H     16   3   2     2.070872273400   107.90854069    79.42306561
 H     17  16   3     2.070887920427   109.57377648   290.35683950
 H     17  16   3     2.068329104914   111.91376769   169.08260595
 H     20  19  18     2.041661098028   120.45565967   357.22870911
 H     21  20  19     2.042148152745   119.67272516   179.69898567
 H     22  21  20     2.040916078428   119.98716657   180.05824469
 H     23  22  21     2.041020828254   120.10068568   180.56399930
 H     24  23  22     2.047430877382   120.64238384   180.60967786
 H     26  25  18     2.044800002393   119.84801330     2.63224753
 H     27  26  25     2.041984217638   119.85857638   180.26398583
 H     28  27  26     2.041306293739   119.81797388   180.00930806
 H     29  28  27     2.041191646832   120.11882527   180.29087611
 H     30  29  28     2.074816796908   121.21336772   180.99701064

---------------------
BASIS SET INFORMATION
---------------------
There are 5 groups of distinct atoms

 Group   1 Type H   : 4s1p contracted to 2s1p pattern {31/1}
 Group   2 Type Rh  : 7s7p6d1f contracted to 6s4p3d1f pattern {211111/4111/411/1}
 Group   3 Type P   : 10s7p1d contracted to 4s3p1d pattern {5311/511/1}
 Group   4 Type C   : 7s4p1d contracted to 3s2p1d pattern {511/31/1}
 Group   5 Type O   : 7s4p1d contracted to 3s2p1d pattern {511/31/1}

Atom   0H    basis set group =>   1
Atom   1Rh   basis set group =>   2
Atom   2P    basis set group =>   3
Atom   3C    basis set group =>   4
Atom   4C    basis set group =>   4
Atom   5C    basis set group =>   4
Atom   6C    basis set group =>   4
Atom   7C    basis set group =>   4
Atom   8C    basis set group =>   4
Atom   9C    basis set group =>   4
Atom  10C    basis set group =>   4
Atom  11C    basis set group =>   4
Atom  12C    basis set group =>   4
Atom  13C    basis set group =>   4
Atom  14C    basis set group =>   4
Atom  15C    basis set group =>   4
Atom  16C    basis set group =>   4
Atom  17P    basis set group =>   3
Atom  18C    basis set group =>   4
Atom  19C    basis set group =>   4
Atom  20C    basis set group =>   4
Atom  21C    basis set group =>   4
Atom  22C    basis set group =>   4
Atom  23C    basis set group =>   4
Atom  24C    basis set group =>   4
Atom  25C    basis set group =>   4
Atom  26C    basis set group =>   4
Atom  27C    basis set group =>   4
Atom  28C    basis set group =>   4
Atom  29C    basis set group =>   4
Atom  30C    basis set group =>   4
Atom  31O    basis set group =>   5
Atom  32H    basis set group =>   1
Atom  33H    basis set group =>   1
Atom  34H    basis set group =>   1
Atom  35H    basis set group =>   1
Atom  36H    basis set group =>   1
Atom  37H    basis set group =>   1
Atom  38H    basis set group =>   1
Atom  39H    basis set group =>   1
Atom  40H    basis set group =>   1
Atom  41H    basis set group =>   1
Atom  42H    basis set group =>   1
Atom  43H    basis set group =>   1
Atom  44H    basis set group =>   1
Atom  45H    basis set group =>   1
Atom  46H    basis set group =>   1
Atom  47H    basis set group =>   1
Atom  48H    basis set group =>   1
Atom  49H    basis set group =>   1
Atom  50H    basis set group =>   1
Atom  51H    basis set group =>   1
Atom  52H    basis set group =>   1
Atom  53H    basis set group =>   1
Atom  54H    basis set group =>   1
Atom  55H    basis set group =>   1
---------------------------------
AUXILIARY/J BASIS SET INFORMATION
---------------------------------
There are 5 groups of distinct atoms

 Group   1 Type H   : 5s2p1d contracted to 3s1p1d pattern {311/2/1}
 Group   2 Type Rh  : 11s5p5d3f3g contracted to 8s5p5d2f3g pattern {41111111/11111/11111/21/111}
 Group   3 Type P   : 14s5p5d2f1g contracted to 8s4p3d1f1g pattern {71111111/2111/311/2/1}
 Group   4 Type C   : 12s5p4d2f1g contracted to 6s4p3d1f1g pattern {711111/2111/211/2/1}
 Group   5 Type O   : 12s5p4d2f1g contracted to 6s4p3d1f1g pattern {711111/2111/211/2/1}

Atom   0H    basis set group =>   1
Atom   1Rh   basis set group =>   2
Atom   2P    basis set group =>   3
Atom   3C    basis set group =>   4
Atom   4C    basis set group =>   4
Atom   5C    basis set group =>   4
Atom   6C    basis set group =>   4
Atom   7C    basis set group =>   4
Atom   8C    basis set group =>   4
Atom   9C    basis set group =>   4
Atom  10C    basis set group =>   4
Atom  11C    basis set group =>   4
Atom  12C    basis set group =>   4
Atom  13C    basis set group =>   4
Atom  14C    basis set group =>   4
Atom  15C    basis set group =>   4
Atom  16C    basis set group =>   4
Atom  17P    basis set group =>   3
Atom  18C    basis set group =>   4
Atom  19C    basis set group =>   4
Atom  20C    basis set group =>   4
Atom  21C    basis set group =>   4
Atom  22C    basis set group =>   4
Atom  23C    basis set group =>   4
Atom  24C    basis set group =>   4
Atom  25C    basis set group =>   4
Atom  26C    basis set group =>   4
Atom  27C    basis set group =>   4
Atom  28C    basis set group =>   4
Atom  29C    basis set group =>   4
Atom  30C    basis set group =>   4
Atom  31O    basis set group =>   5
Atom  32H    basis set group =>   1
Atom  33H    basis set group =>   1
Atom  34H    basis set group =>   1
Atom  35H    basis set group =>   1
Atom  36H    basis set group =>   1
Atom  37H    basis set group =>   1
Atom  38H    basis set group =>   1
Atom  39H    basis set group =>   1
Atom  40H    basis set group =>   1
Atom  41H    basis set group =>   1
Atom  42H    basis set group =>   1
Atom  43H    basis set group =>   1
Atom  44H    basis set group =>   1
Atom  45H    basis set group =>   1
Atom  46H    basis set group =>   1
Atom  47H    basis set group =>   1
Atom  48H    basis set group =>   1
Atom  49H    basis set group =>   1
Atom  50H    basis set group =>   1
Atom  51H    basis set group =>   1
Atom  52H    basis set group =>   1
Atom  53H    basis set group =>   1
Atom  54H    basis set group =>   1
Atom  55H    basis set group =>   1
-------------------------
ECP PARAMETER INFORMATION
-------------------------

 Group 1, Type Rh ECP Def2-ECP (replacing 28 core electrons, lmax=3)

Atom   1Rh   ECP group =>   1

--------------------------------------------------------------------------
[[23505,1],7]: A high-performance Open MPI point-to-point messaging module
was unable to find any relevant network interfaces:

Module: OpenFabrics (openib)
  Host: eu-g5-024-3

Another transport will be used instead, although this may result in
lower performance.

NOTE: You can disable this warning by setting the MCA parameter
btl_base_warn_component_unused to 0.
--------------------------------------------------------------------------


           ************************************************************
           *        Program running with 10 parallel MPI-processes    *
           *              working on a common directory               *
           ************************************************************
------------------------------------------------------------------------------
                           ORCA GTO INTEGRAL CALCULATION
                           -- RI-GTO INTEGRALS CHOSEN --
------------------------------------------------------------------------------

                         BASIS SET STATISTICS AND STARTUP INFO

Gaussian basis set:
 # of primitive gaussian shells          ...  518
 # of primitive gaussian functions       ...  984
 # of contracted shells                  ...  273
 # of contracted basis functions         ...  593
 Highest angular momentum                ...    3
 Maximum contraction depth               ...    5
Auxiliary gaussian basis set:
 # of primitive gaussian shells          ...  953
 # of primitive gaussian functions       ... 2613
 # of contracted shells                  ...  602
 # of contracted aux-basis functions     ... 1838
 Highest angular momentum                ...    4
 Maximum contraction depth               ...    7
Ratio of auxiliary to basis functions    ...  3.10
Integral package used                  ... LIBINT
 One Electron integrals                  
   ECP integrals                         ... done
 Ordering auxiliary basis shells         ... done
 Integral threshhold             Thresh  ...  2.500e-11
 Primitive cut-off               TCut    ...  2.500e-12
 Pre-screening matrix                    ... done
 Shell pair data                         ... 
 Ordering of the shell pairs             ... done (   0.006 sec) 25486 of 37401 pairs
 Determination of significant pairs      ... done (   0.000 sec)
 Creation of shell pair data             ... done (   0.007 sec)
 Storage of shell pair data              ... done (   0.021 sec)
 Shell pair data done in (   0.034 sec)
 Computing two index integrals           ... done
 Cholesky decomposition of the V-matrix  ... done


Timings:
 Total evaluation time                   ...   1.785 sec (  0.030 min)
 One electron matrix time                ...   1.066 sec (  0.018 min) = 59.7%
 Schwartz matrix evaluation time         ...   0.245 sec (  0.004 min) = 13.7%
 Two index repulsion integral time       ...   0.125 sec (  0.002 min) =  7.0%
 Cholesky decomposition of V             ...   0.279 sec (  0.005 min) = 15.6%
 Three index repulsion integral time     ...   0.000 sec (  0.000 min) =  0.0%

--------------------------------------------------------------------------
[[21817,1],1]: A high-performance Open MPI point-to-point messaging module
was unable to find any relevant network interfaces:

Module: OpenFabrics (openib)
  Host: eu-g5-024-3

Another transport will be used instead, although this may result in
lower performance.

NOTE: You can disable this warning by setting the MCA parameter
btl_base_warn_component_unused to 0.
--------------------------------------------------------------------------


           ************************************************************
           *        Program running with 10 parallel MPI-processes    *
           *              working on a common directory               *
           ************************************************************
-------------------------------------------------------------------------------
                                 ORCA SCF
-------------------------------------------------------------------------------

------------
SCF SETTINGS
------------
Hamiltonian:
 Density Functional     Method          .... DFT(GTOs)
 Exchange Functional    Exchange        .... PBE
   PBE kappa parameter   XKappa         ....  0.804000
   PBE mue parameter    XMuePBE         ....  0.219520
 Correlation Functional Correlation     .... PBE
   PBE beta parameter  CBetaPBE         ....  0.066725
 LDA part of GGA corr.  LDAOpt          .... PW91-LDA
 Gradients option       PostSCFGGA      .... off
 Hybrid DFT is turned on
   Fraction HF Exchange ScalHFX         ....  0.250000
   Scaling of DF-GGA-X  ScalDFX         ....  0.750000
   Scaling of DF-GGA-C  ScalDFC         ....  1.000000
   Scaling of DF-LDA-C  ScalLDAC        ....  1.000000
   Perturbative correction              ....  0.000000
   Density functional embedding theory  .... OFF
   NL short-range parameter             ....  6.900000
 RI-approximation to the Coulomb term is turned on
   Number of auxiliary basis functions  .... 1838
   RIJ-ON(X) (HFX calculated with O(N)) .... on


General Settings:
 Integral files         IntName         .... TEP_Rh
 Hartree-Fock type      HFTyp           .... RHF
 Total Charge           Charge          ....    0
 Multiplicity           Mult            ....    1
 Number of Electrons    NEL             ....  242
 Basis Dimension        Dim             ....  593
 Nuclear Repulsion      ENuc            ....   3631.9189625692 Eh

Convergence Acceleration:
 DIIS                   CNVDIIS         .... on
   Start iteration      DIISMaxIt       ....    12
   Startup error        DIISStart       ....  0.200000
   # of expansion vecs  DIISMaxEq       ....     5
   Bias factor          DIISBfac        ....   1.050
   Max. coefficient     DIISMaxC        ....  10.000
 Newton-Raphson         CNVNR           .... off
 SOSCF                  CNVSOSCF        .... off
 Level Shifting         CNVShift        .... on
   Level shift para.    LevelShift      ....    0.2500
   Turn off err/grad.   ShiftErr        ....    0.0010
 Zerner damping         CNVZerner       .... off
 Static damping         CNVDamp         .... on
   Fraction old density DampFac         ....    0.7000
   Max. Damping (<1)    DampMax         ....    0.9800
   Min. Damping (>=0)   DampMin         ....    0.0000
   Turn off err/grad.   DampErr         ....    0.1000
 Fernandez-Rico         CNVRico         .... off

SCF Procedure:
 Maximum # iterations   MaxIter         ....   125
 SCF integral mode      SCFMode         .... Direct
   Integral package                     .... LIBINT
 Reset frequency        DirectResetFreq ....    20
 Integral Threshold     Thresh          ....  2.500e-11 Eh
 Primitive CutOff       TCut            ....  2.500e-12 Eh

Convergence Tolerance:
 Convergence Check Mode ConvCheckMode   .... Total+1el-Energy
 Convergence forced     ConvForced      .... 0
 Energy Change          TolE            ....  1.000e-08 Eh
 1-El. energy change                    ....  1.000e-05 Eh
 DIIS Error             TolErr          ....  5.000e-07


Diagonalization of the overlap matrix:
Smallest eigenvalue                        ... 2.375e-04
Time for diagonalization                   ...    0.185 sec
Threshold for overlap eigenvalues          ... 1.000e-08
Number of eigenvalues below threshold      ... 0
Time for construction of square roots      ...    0.094 sec
Total time needed                          ...    0.280 sec

-------------------
DFT GRID GENERATION
-------------------

General Integration Accuracy     IntAcc      ...  4.340
Radial Grid Type                 RadialGrid  ... Gauss-Chebyshev
Angular Grid (max. acc.)         AngularGrid ... Lebedev-110
Angular grid pruning method      GridPruning ... 3 (G Style)
Weight generation scheme         WeightScheme... Becke
Basis function cutoff            BFCut       ...    1.0000e-11
Integration weight cutoff        WCut        ...    1.0000e-14
Grids for H and He will be reduced by one unit

# of grid points (after initial pruning)     ...  73170 (   0.0 sec)
# of grid points (after weights+screening)   ...  64168 (   0.2 sec)
nearest neighbour list constructed           ...    0.0 sec
Grid point re-assignment to atoms done       ...    0.0 sec
Grid point division into batches done        ...    0.1 sec
Reduced shell lists constructed in    0.2 sec

Total number of grid points                  ...    64168
Total number of batches                      ...     1033
Average number of points per batch           ...       62
Average number of grid points per atom       ...     1146
Average number of shells per batch           ...   142.81 (52.31%)
Average number of basis functions per batch  ...   294.89 (49.73%)
Average number of large shells per batch     ...    90.13 (63.11%)
Average number of large basis fcns per batch ...   188.50 (63.92%)
Maximum spatial batch extension              ...  15.08, 13.53, 18.01 au
Average spatial batch extension              ...   0.23,  0.22,  0.24 au

Time for grid setup =    0.523 sec

------------------------------
INITIAL GUESS: MODEL POTENTIAL
------------------------------
Loading Hartree-Fock densities                     ... done
  calling /cluster/apps/orca/4.2.0/x86_64/bin/orca TEP_Rh_atom45.inp > TEP_Rh_atom45.out in order to generate an atomic fitting density for atom 1 (Rh with ECP) on-the-fly... 
    atom 1 (Rh), assumed electronic state with S=4: 1s2 2s2 2p6 3s2 3p6 4s2 3d10 4p6 5s2 4d7           ... done
Calculating cut-offs                               ... done
Setting up the integral package                    ... done
Initializing the effective Hamiltonian             ... done
Starting the Coulomb interaction                   ... done (   0.3 sec)
Reading the grid                                   ... done
Mapping shells                                     ... done
Starting the XC term evaluation                    ... done (   0.2 sec)
  promolecular density results
     # of electrons  =    269.988175652
     EX              =   -332.401239293
     EC              =    -10.067113336
     EX+EC           =   -342.468352630
Transforming the Hamiltonian                       ... done (   0.1 sec)
Diagonalizing the Hamiltonian                      ... done (   0.2 sec)
Back transforming the eigenvectors                 ... done (   0.0 sec)
Now organizing SCF variables                       ... done
                      ------------------
                      INITIAL GUESS DONE (   5.1 sec)
                      ------------------
--------------
SCF ITERATIONS
--------------
ITER       Energy         Delta-E        Max-DP      RMS-DP      [F,P]     Damp
               ***  Starting incremental Fock matrix formation  ***
  0  -1909.3018859896   0.000000000000 0.13094383  0.00131955  0.4473529 0.7000
  1  -1909.5795138037  -0.277627814096 0.07357758  0.00089202  0.2889122 0.7000
                               ***Turning on DIIS***
  2  -1909.6950368301  -0.115523026364 0.02858668  0.00048614  0.1929389 0.7000
  3  -1909.7643214163  -0.069284586197 0.02456984  0.00025795  0.1365748 0.7000
  4  -1909.8122898436  -0.047968427322 0.08072517  0.00056891  0.0970161 0.0000
  5  -1909.9217145287  -0.109424685131 0.00930973  0.00009502  0.0081283 0.0000
  6  -1909.9217628614  -0.000048332683 0.00808247  0.00004132  0.0111763 0.0000
  7  -1909.9220063692  -0.000243507804 0.00193200  0.00001309  0.0012306 0.0000
  8  -1909.9220156136  -0.000009244409 0.00072510  0.00000653  0.0006409 0.0000
  9  -1909.9220166841  -0.000001070419 0.00041715  0.00000311  0.0006483 0.0000
 10  -1909.9220174966  -0.000000812565 0.00008484  0.00000112  0.0001357 0.0000
 11  -1909.9220175302  -0.000000033587 0.00004420  0.00000058  0.0000330 0.0000
 12  -1909.9220175606  -0.000000030371 0.00001343  0.00000021  0.0000109 0.0000
 13  -1909.9220175794  -0.000000018843 0.00000648  0.00000010  0.0000032 0.0000
 14  -1909.9220175801  -0.000000000702 0.00000796  0.00000006  0.0000086 0.0000
 15  -1909.9220175714   0.000000008759 0.00000329  0.00000002  0.0000044 0.0000
                            ***DIIS convergence achieved***

               *****************************************************
               *                     SUCCESS                       *
               *           SCF CONVERGED AFTER  16 CYCLES          *
               *****************************************************

Setting up the final grid:

General Integration Accuracy     IntAcc      ...  4.670
Radial Grid Type                 RadialGrid  ... Gauss-Chebyshev
Angular Grid (max. acc.)         AngularGrid ... Lebedev-302
Angular grid pruning method      GridPruning ... 3 (G Style)
Weight generation scheme         WeightScheme... Becke
Basis function cutoff            BFCut       ...    1.0000e-11
Integration weight cutoff        WCut        ...    1.0000e-14
Grids for H and He will be reduced by one unit

# of grid points (after initial pruning)     ... 283076 (   0.0 sec)
# of grid points (after weights+screening)   ... 242125 (   0.9 sec)
nearest neighbour list constructed           ...    0.0 sec
Grid point re-assignment to atoms done       ...    0.0 sec
Grid point division into batches done        ...    1.1 sec
Reduced shell lists constructed in    1.5 sec

Total number of grid points                  ...   242125
Total number of batches                      ...     3810
Average number of points per batch           ...       63
Average number of grid points per atom       ...     4324
Average number of shells per batch           ...   131.42 (48.14%)
Average number of basis functions per batch  ...   269.13 (45.38%)
Average number of large shells per batch     ...    81.57 (62.07%)
Average number of large basis fcns per batch ...   170.02 (63.17%)
Maximum spatial batch extension              ...  22.74, 18.12, 21.57 au
Average spatial batch extension              ...   0.16,  0.16,  0.17 au

Final grid set up in    2.6 sec
Final integration                            ... done (   1.0 sec)
Change in XC energy                          ...     0.001452094
Integrated number of electrons               ...   242.000858515
Previous integrated no of electrons          ...   242.008041692

----------------
TOTAL SCF ENERGY
----------------

Total Energy       :        -1909.92056548 Eh          -51971.58077 eV

Components:
Nuclear Repulsion  :         3631.91896257 Eh           98829.53937 eV
Electronic Energy  :        -5541.83952805 Eh         -150801.12014 eV
One Electron Energy:        -9881.79518938 Eh         -268897.31758 eV
Two Electron Energy:         4339.95566132 Eh          118096.19744 eV

Virial components:
Potential Energy   :        -3737.55121321 Eh         -101703.93904 eV
Kinetic Energy     :         1827.63064773 Eh           49732.35827 eV
Virial Ratio       :            2.04502546


DFT components:
N(Alpha)           :      121.000429257414 electrons
N(Beta)            :      121.000429257414 electrons
N(Total)           :      242.000858514828 electrons
E(X)               :     -159.159724172155 Eh       
E(C)               :       -8.456550960763 Eh       
E(XC)              :     -167.616275132918 Eh       
DFET-embed. en.    :        0.000000000000 Eh       

---------------
SCF CONVERGENCE
---------------

  Last Energy change         ...   -5.4793e-09  Tolerance :   1.0000e-08
  Last MAX-Density change    ...    8.9365e-07  Tolerance :   1.0000e-07
  Last RMS-Density change    ...    1.1428e-08  Tolerance :   5.0000e-09
  Last DIIS Error            ...    9.5758e-07  Tolerance :   5.0000e-07

             **** THE GBW FILE WAS UPDATED (TEP_Rh.gbw) ****
             **** DENSITY FILE WAS UPDATED (TEP_Rh.scfp) ****
             **** ENERGY FILE WAS UPDATED (TEP_Rh.en.tmp) ****
             **** THE GBW FILE WAS UPDATED (TEP_Rh.gbw) ****
             **** DENSITY FILE WAS UPDATED (TEP_Rh.scfp) ****
----------------
ORBITAL ENERGIES
----------------

  NO   OCC          E(Eh)            E(eV) 
   0   2.0000     -77.233129     -2101.6203 
   1   2.0000     -77.231668     -2101.5805 
   2   2.0000     -19.257505      -524.0234 
   3   2.0000     -10.321864      -280.8722 
   4   2.0000     -10.253896      -279.0227 
   5   2.0000     -10.253080      -279.0005 
   6   2.0000     -10.251498      -278.9574 
   7   2.0000     -10.251448      -278.9561 
   8   2.0000     -10.249397      -278.9003 
   9   2.0000     -10.248992      -278.8893 
  10   2.0000     -10.246502      -278.8215 
  11   2.0000     -10.245568      -278.7961 
  12   2.0000     -10.245249      -278.7874 
  13   2.0000     -10.245098      -278.7833 
  14   2.0000     -10.245003      -278.7807 
  15   2.0000     -10.244873      -278.7772 
  16   2.0000     -10.244652      -278.7712 
  17   2.0000     -10.243966      -278.7525 
  18   2.0000     -10.243910      -278.7510 
  19   2.0000     -10.243866      -278.7498 
  20   2.0000     -10.243087      -278.7286 
  21   2.0000     -10.242867      -278.7226 
  22   2.0000     -10.242635      -278.7163 
  23   2.0000     -10.242325      -278.7078 
  24   2.0000     -10.242221      -278.7050 
  25   2.0000     -10.241842      -278.6947 
  26   2.0000     -10.239908      -278.6421 
  27   2.0000     -10.239250      -278.6241 
  28   2.0000     -10.239002      -278.6174 
  29   2.0000     -10.238450      -278.6024 
  30   2.0000      -6.638690      -180.6479 
  31   2.0000      -6.636885      -180.5988 
  32   2.0000      -4.778778      -130.0372 
  33   2.0000      -4.778634      -130.0332 
  34   2.0000      -4.776942      -129.9872 
  35   2.0000      -4.776815      -129.9837 
  36   2.0000      -4.776338      -129.9708 
  37   2.0000      -4.774651      -129.9249 
  38   2.0000      -3.233233       -87.9807 
  39   2.0000      -2.001299       -54.4581 
  40   2.0000      -1.987694       -54.0879 
  41   2.0000      -1.955395       -53.2090 
  42   2.0000      -1.117862       -30.4186 
  43   2.0000      -0.893659       -24.3177 
  44   2.0000      -0.892148       -24.2766 
  45   2.0000      -0.884970       -24.0812 
  46   2.0000      -0.884681       -24.0734 
  47   2.0000      -0.831728       -22.6325 
  48   2.0000      -0.797876       -21.7113 
  49   2.0000      -0.779350       -21.2072 
  50   2.0000      -0.774719       -21.0812 
  51   2.0000      -0.773785       -21.0558 
  52   2.0000      -0.770790       -20.9743 
  53   2.0000      -0.770233       -20.9591 
  54   2.0000      -0.767864       -20.8946 
  55   2.0000      -0.766653       -20.8617 
  56   2.0000      -0.696277       -18.9467 
  57   2.0000      -0.667602       -18.1664 
  58   2.0000      -0.640902       -17.4398 
  59   2.0000      -0.630117       -17.1464 
  60   2.0000      -0.629630       -17.1331 
  61   2.0000      -0.628782       -17.1100 
  62   2.0000      -0.619820       -16.8662 
  63   2.0000      -0.618186       -16.8217 
  64   2.0000      -0.617042       -16.7906 
  65   2.0000      -0.590799       -16.0765 
  66   2.0000      -0.573036       -15.5931 
  67   2.0000      -0.552385       -15.0312 
  68   2.0000      -0.546109       -14.8604 
  69   2.0000      -0.545329       -14.8391 
  70   2.0000      -0.532749       -14.4968 
  71   2.0000      -0.520736       -14.1699 
  72   2.0000      -0.488593       -13.2953 
  73   2.0000      -0.487007       -13.2521 
  74   2.0000      -0.483764       -13.1639 
  75   2.0000      -0.480068       -13.0633 
  76   2.0000      -0.478246       -13.0137 
  77   2.0000      -0.470844       -12.8123 
  78   2.0000      -0.468620       -12.7518 
  79   2.0000      -0.467387       -12.7183 
  80   2.0000      -0.464143       -12.6300 
  81   2.0000      -0.460711       -12.5366 
  82   2.0000      -0.456327       -12.4173 
  83   2.0000      -0.447460       -12.1760 
  84   2.0000      -0.445127       -12.1125 
  85   2.0000      -0.443176       -12.0594 
  86   2.0000      -0.442453       -12.0398 
  87   2.0000      -0.441153       -12.0044 
  88   2.0000      -0.440728       -11.9928 
  89   2.0000      -0.432645       -11.7729 
  90   2.0000      -0.424308       -11.5460 
  91   2.0000      -0.410358       -11.1664 
  92   2.0000      -0.402095       -10.9416 
  93   2.0000      -0.399250       -10.8641 
  94   2.0000      -0.394446       -10.7334 
  95   2.0000      -0.391683       -10.6582 
  96   2.0000      -0.390752       -10.6329 
  97   2.0000      -0.389833       -10.6079 
  98   2.0000      -0.371919       -10.1204 
  99   2.0000      -0.366514        -9.9734 
 100   2.0000      -0.365617        -9.9489 
 101   2.0000      -0.361898        -9.8478 
 102   2.0000      -0.359712        -9.7883 
 103   2.0000      -0.352161        -9.5828 
 104   2.0000      -0.345240        -9.3945 
 105   2.0000      -0.340484        -9.2650 
 106   2.0000      -0.336904        -9.1676 
 107   2.0000      -0.317595        -8.6422 
 108   2.0000      -0.289081        -7.8663 
 109   2.0000      -0.283471        -7.7136 
 110   2.0000      -0.279698        -7.6110 
 111   2.0000      -0.278115        -7.5679 
 112   2.0000      -0.276440        -7.5223 
 113   2.0000      -0.275202        -7.4886 
 114   2.0000      -0.271904        -7.3989 
 115   2.0000      -0.269607        -7.3364 
 116   2.0000      -0.261698        -7.1212 
 117   2.0000      -0.245947        -6.6925 
 118   2.0000      -0.240742        -6.5509 
 119   2.0000      -0.225061        -6.1242 
 120   2.0000      -0.191517        -5.2114 
 121   0.0000      -0.033617        -0.9148 
 122   0.0000      -0.025310        -0.6887 
 123   0.0000      -0.024991        -0.6800 
 124   0.0000      -0.023252        -0.6327 
 125   0.0000      -0.016724        -0.4551 
 126   0.0000      -0.015782        -0.4294 
 127   0.0000      -0.014426        -0.3925 
 128   0.0000      -0.004704        -0.1280 
 129   0.0000      -0.002439        -0.0664 
 130   0.0000       0.035392         0.9631 
 131   0.0000       0.054560         1.4847 
 132   0.0000       0.059410         1.6166 
 133   0.0000       0.064678         1.7600 
 134   0.0000       0.065464         1.7814 
 135   0.0000       0.068466         1.8630 
 136   0.0000       0.074907         2.0383 
 137   0.0000       0.078435         2.1343 
 138   0.0000       0.081439         2.2161 
 139   0.0000       0.082868         2.2550 
 140   0.0000       0.090761         2.4697 
 141   0.0000       0.094834         2.5806 
 142   0.0000       0.100375         2.7313 
 143   0.0000       0.108724         2.9585 
 144   0.0000       0.109532         2.9805 
 145   0.0000       0.111922         3.0456 
 146   0.0000       0.113018         3.0754 
 147   0.0000       0.119804         3.2600 
 148   0.0000       0.127456         3.4682 
 149   0.0000       0.129875         3.5341 
 150   0.0000       0.131358         3.5744 
 151   0.0000       0.140580         3.8254 
 152   0.0000       0.142394         3.8747 
 153   0.0000       0.144740         3.9386 
 154   0.0000       0.146705         3.9920 
 155   0.0000       0.148068         4.0291 
 156   0.0000       0.155178         4.2226 
 157   0.0000       0.158433         4.3112 
 158   0.0000       0.160652         4.3716 
 159   0.0000       0.166662         4.5351 
 160   0.0000       0.172397         4.6912 
 161   0.0000       0.173997         4.7347 
 162   0.0000       0.178086         4.8460 
 163   0.0000       0.185223         5.0402 
 164   0.0000       0.191201         5.2028 
 165   0.0000       0.193024         5.2525 
 166   0.0000       0.200575         5.4579 
 167   0.0000       0.202801         5.5185 
 168   0.0000       0.214989         5.8501 
 169   0.0000       0.220559         6.0017 
 170   0.0000       0.228368         6.2142 
 171   0.0000       0.250379         6.8132 
 172   0.0000       0.257711         7.0127 
 173   0.0000       0.265278         7.2186 
 174   0.0000       0.285981         7.7819 
 175   0.0000       0.292388         7.9563 
 176   0.0000       0.296582         8.0704 
 177   0.0000       0.297565         8.0972 
 178   0.0000       0.298676         8.1274 
 179   0.0000       0.301849         8.2137 
 180   0.0000       0.307269         8.3612 
 181   0.0000       0.308542         8.3958 
 182   0.0000       0.309914         8.4332 
 183   0.0000       0.310623         8.4525 
 184   0.0000       0.316328         8.6077 
 185   0.0000       0.324906         8.8411 
 186   0.0000       0.329442         8.9646 
 187   0.0000       0.343489         9.3468 
 188   0.0000       0.347027         9.4431 
 189   0.0000       0.355071         9.6620 
 190   0.0000       0.359333         9.7780 
 191   0.0000       0.366429         9.9710 
 192   0.0000       0.372178        10.1275 
 193   0.0000       0.377054        10.2602 
 194   0.0000       0.384053        10.4506 
 195   0.0000       0.393131        10.6976 
 196   0.0000       0.394426        10.7329 
 197   0.0000       0.400565        10.8999 
 198   0.0000       0.402299        10.9471 
 199   0.0000       0.414392        11.2762 
 200   0.0000       0.418562        11.3896 
 201   0.0000       0.423280        11.5180 
 202   0.0000       0.426987        11.6189 
 203   0.0000       0.431290        11.7360 
 204   0.0000       0.433161        11.7869 
 205   0.0000       0.436384        11.8746 
 206   0.0000       0.437627        11.9084 
 207   0.0000       0.448605        12.2072 
 208   0.0000       0.461266        12.5517 
 209   0.0000       0.462792        12.5932 
 210   0.0000       0.464361        12.6359 
 211   0.0000       0.468136        12.7386 
 212   0.0000       0.472653        12.8615 
 213   0.0000       0.475649        12.9431 
 214   0.0000       0.477998        13.0070 
 215   0.0000       0.484296        13.1784 
 216   0.0000       0.486500        13.2383 
 217   0.0000       0.489276        13.3139 
 218   0.0000       0.491094        13.3633 
 219   0.0000       0.493782        13.4365 
 220   0.0000       0.498981        13.5780 
 221   0.0000       0.502861        13.6835 
 222   0.0000       0.504154        13.7187 
 223   0.0000       0.505138        13.7455 
 224   0.0000       0.508946        13.8491 
 225   0.0000       0.510805        13.8997 
 226   0.0000       0.513881        13.9834 
 227   0.0000       0.518919        14.1205 
 228   0.0000       0.523765        14.2524 
 229   0.0000       0.530872        14.4458 
 230   0.0000       0.535368        14.5681 
 231   0.0000       0.541521        14.7355 
 232   0.0000       0.547352        14.8942 
 233   0.0000       0.550790        14.9878 
 234   0.0000       0.559066        15.2130 
 235   0.0000       0.562934        15.3182 
 236   0.0000       0.565157        15.3787 
 237   0.0000       0.570945        15.5362 
 238   0.0000       0.574003        15.6194 
 239   0.0000       0.577261        15.7081 
 240   0.0000       0.587909        15.9978 
 241   0.0000       0.595943        16.2164 
 242   0.0000       0.598675        16.2908 
 243   0.0000       0.599063        16.3013 
 244   0.0000       0.606556        16.5052 
 245   0.0000       0.614333        16.7169 
 246   0.0000       0.619992        16.8708 
 247   0.0000       0.622130        16.9290 
 248   0.0000       0.626997        17.0615 
 249   0.0000       0.630619        17.1600 
 250   0.0000       0.636776        17.3276 
 251   0.0000       0.644913        17.5490 
 252   0.0000       0.650740        17.7075 
 253   0.0000       0.656537        17.8653 
 254   0.0000       0.661530        18.0011 
[...]
  72:       875.19    0.415995  (  0.012309   0.637917  -0.094367)
  73:       875.76    0.193857  ( -0.304718  -0.289339  -0.131479)
  74:       893.22   12.942692  (  2.870208  -0.221856   2.157633)
  75:       944.95    0.695213  ( -0.520555   0.366429  -0.538484)
  76:       955.61    0.283183  ( -0.172309   0.490545  -0.113394)
  77:       956.22    0.277552  (  0.459170  -0.072021   0.248048)
  78:       957.23    0.112883  (  0.199273   0.027975   0.269055)
  79:      1005.86    0.373195  (  0.027214  -0.594865  -0.136345)
  80:      1011.98    0.038832  ( -0.071267   0.164924  -0.080952)
  81:      1012.64    0.060488  (  0.147884   0.064757  -0.185539)
  82:      1013.84    0.117825  ( -0.035813  -0.335717  -0.061936)
  83:      1014.92    0.779401  ( -0.667660   0.203772   0.540470)
  84:      1016.44    1.090683  ( -0.501897  -0.807035   0.432987)
  85:      1017.20    0.818480  (  0.589141  -0.048612  -0.684857)
  86:      1017.97    1.464825  (  0.612201   0.839774  -0.620334)
  87:      1023.64    0.059798  ( -0.202209   0.046012  -0.129584)
  88:      1031.76    0.093108  ( -0.269219  -0.141966  -0.021791)
  89:      1033.25    0.181249  ( -0.208955  -0.031751   0.369565)
  90:      1034.98    0.113482  ( -0.236473   0.218683   0.098692)
  91:      1036.69    0.272536  ( -0.205543  -0.375317   0.299041)
  92:      1057.93    6.009182  (  1.807312  -0.705514  -1.498350)
  93:      1058.57    5.336497  ( -0.736112   0.929498   1.982592)
  94:      1060.57    6.353665  ( -1.129012  -2.074303   0.881059)
  95:      1061.10    0.357742  (  0.389751   0.429179  -0.147112)
  96:      1081.09   10.131890  ( -2.286460   0.242859   2.201139)
  97:      1101.94    5.249871  ( -1.019687   0.288229   2.031510)
  98:      1102.73    1.671913  ( -1.083470   0.315069   0.631457)
  99:      1106.71    6.395492  ( -1.407641   1.578374  -1.386642)
 100:      1108.43    2.893830  (  0.723271   0.679743   1.381542)
 101:      1130.41   37.917739  ( -4.880451   1.394953   3.486122)
 102:      1133.17   41.877023  ( -2.702432   2.116640   5.485774)
 103:      1139.48   41.033066  ( -2.153591  -5.895014   1.282157)
 104:      1139.95   17.267077  (  1.613670   3.599587  -1.306186)
 105:      1154.86    1.653278  (  0.708904  -0.298681   1.030302)
 106:      1170.79    0.135855  (  0.243292  -0.271128   0.056159)
 107:      1171.22    0.323521  (  0.243055   0.355408   0.371659)
 108:      1172.21    0.185947  ( -0.231774  -0.357789   0.064922)
 109:      1172.34    0.094146  ( -0.158196  -0.141363  -0.221667)
 110:      1191.77    6.798570  ( -2.009243   0.971476   1.348238)
 111:      1193.12    7.660601  (  0.688194  -0.987480  -2.492363)
 112:      1198.13   10.599031  (  1.191398   2.985715  -0.514886)
 113:      1199.36    0.630186  (  0.549727   0.498296   0.282290)
 114:      1251.48    1.529635  ( -0.737702   0.084646   0.989073)
 115:      1282.63    0.846616  ( -0.615890  -0.141249  -0.668838)
 116:      1317.96    5.728214  ( -0.306802   1.504141  -1.836205)
 117:      1320.29    2.289144  (  1.377260   0.566284  -0.267622)
 118:      1324.45    6.140766  (  1.425409  -0.458255   1.974583)
 119:      1324.82    2.334359  ( -1.508267   0.166119  -0.178587)
 120:      1389.81    4.637625  ( -0.263041  -2.082361   0.481879)
 121:      1390.37    1.859842  ( -0.755794   0.092886   1.131367)
 122:      1391.42    2.125861  ( -0.036231  -1.391939  -0.432498)
 123:      1392.34    0.796137  (  0.664189  -0.345610  -0.485330)
 124:      1423.72   11.459294  (  1.993864   1.961201  -1.907221)
 125:      1434.25    1.725370  (  0.871088  -0.212032   0.960010)
 126:      1474.08   23.516806  (  1.598079  -2.803484   3.619865)
 127:      1474.73    7.519743  ( -0.349402   2.322096  -1.416168)
 128:      1475.50   22.730874  ( -4.356428  -0.968717  -1.677498)
 129:      1475.76   14.540861  ( -1.969788  -2.772845  -1.723986)
 130:      1515.55   13.143317  ( -2.679376   0.751943   2.323541)
 131:      1516.60    9.870739  ( -1.037658   0.763986   2.865367)
 132:      1520.26   10.382037  ( -1.103513  -2.948329   0.686772)
 133:      1521.91    7.580448  (  0.982114   2.520551  -0.512564)
 134:      1656.17    0.990367  ( -0.061406   0.974795  -0.190711)
 135:      1656.49    3.049717  (  0.433379  -1.388469  -0.966465)
 136:      1657.55    1.159135  ( -0.209055  -1.049489  -0.118343)
 137:      1658.18    0.506178  (  0.416845  -0.554797   0.156903)
 138:      1672.91    0.077399  ( -0.057499   0.046418  -0.268212)
 139:      1673.01    0.120343  (  0.317646   0.002082  -0.139426)
 140:      1675.22    0.352394  ( -0.016856  -0.593375   0.003972)
 141:      1676.60    1.073572  (  0.001776  -1.015301   0.206720)
 142:      1936.97  197.245805  (  4.626181 -12.628056   4.046784)
 143:      2120.40  1039.974815  ( 26.370210  11.376746  14.668213)
 144:      3062.82   10.895868  ( -0.238109  -2.840399   1.664725)
 145:      3069.33    7.235134  (  1.937201   1.810018   0.454117)
 146:      3132.23    4.543445  ( -1.727609   0.776766  -0.977470)
 147:      3140.46    2.680130  ( -0.065842  -1.131108  -1.181689)
 148:      3165.68    4.121440  ( -0.200012   1.225845   1.605846)
 149:      3166.00    2.159419  ( -0.867459   0.487389   1.081382)
 150:      3195.72    0.104464  ( -0.018148   0.063792  -0.316330)
 151:      3200.32    0.243956  ( -0.095901   0.349514   0.335558)
 152:      3201.74    1.049751  (  0.747063   0.599064   0.364377)
 153:      3203.29    0.718978  (  0.452717   0.699893  -0.155481)
 154:      3206.19    0.246485  ( -0.179532  -0.122888   0.446265)
 155:      3206.89    4.134317  ( -1.450852  -1.393458   0.296008)
 156:      3209.19    0.839016  ( -0.361251   0.159841  -0.826417)
 157:      3210.42    0.370816  ( -0.558865  -0.075430   0.229774)
 158:      3213.11    0.677736  (  0.188829  -0.115691   0.792903)
 159:      3217.33    2.340042  (  0.362385   1.164368  -0.923562)
 160:      3217.57    8.283844  ( -0.748208   2.297241  -1.564197)
 161:      3219.53    8.904509  (  2.152923   1.861210   0.897401)
 162:      3221.94    9.283839  ( -1.675651   1.353169  -2.155219)
 163:      3223.98    8.703901  (  1.595686   0.945410   2.294316)
 164:      3226.66   16.835615  (  3.064517  -1.507152  -2.274388)
 165:      3229.27   17.604027  ( -1.962892   1.410650   3.429453)
 166:      3229.71   15.484575  ( -2.122235  -3.199302   0.863229)
 167:      3231.44   12.041275  ( -0.996191  -2.860848   1.692463)

The first frequency considered to be a vibration is 6
The total number of vibrations considered is 162


--------------------------
THERMOCHEMISTRY AT 298.15K
--------------------------

Temperature         ... 298.15 K
Pressure            ... 1.00 atm
Total Mass          ... 530.35 AMU

Throughout the following assumptions are being made:
  (1) The electronic state is orbitally nondegenerate
  (2) There are no thermally accessible electronically excited states
  (3) Hindered rotations indicated by low frequency modes are not
      treated as such but are treated as vibrations and this may
      cause some error
  (4) All equations used are the standard statistical mechanics
      equations for an ideal gas
  (5) All vibrations are strictly harmonic

freq.       8.75  E(vib)   ...       0.58 
freq.      20.23  E(vib)   ...       0.56 
freq.      21.83  E(vib)   ...       0.56 
freq.      25.27  E(vib)   ...       0.56 
freq.      30.56  E(vib)   ...       0.55 
freq.      33.56  E(vib)   ...       0.55 
freq.      36.90  E(vib)   ...       0.54 
freq.      45.60  E(vib)   ...       0.53 
freq.      48.86  E(vib)   ...       0.53 
freq.      57.24  E(vib)   ...       0.51 
freq.      65.89  E(vib)   ...       0.50 
freq.      77.16  E(vib)   ...       0.49 
freq.      93.38  E(vib)   ...       0.47 
freq.     107.46  E(vib)   ...       0.45 
freq.     147.73  E(vib)   ...       0.41 
freq.     149.09  E(vib)   ...       0.40 
freq.     177.97  E(vib)   ...       0.37 
freq.     203.71  E(vib)   ...       0.35 
freq.     207.34  E(vib)   ...       0.34 
freq.     212.93  E(vib)   ...       0.34 
freq.     219.97  E(vib)   ...       0.33 
freq.     241.17  E(vib)   ...       0.31 
freq.     256.75  E(vib)   ...       0.30 
freq.     266.46  E(vib)   ...       0.29 
freq.     288.76  E(vib)   ...       0.27 
freq.     332.66  E(vib)   ...       0.24 
freq.     350.25  E(vib)   ...       0.23 
freq.     386.17  E(vib)   ...       0.20 
freq.     408.66  E(vib)   ...       0.19 
freq.     411.26  E(vib)   ...       0.19 
freq.     412.51  E(vib)   ...       0.19 
freq.     413.36  E(vib)   ...       0.19 
freq.     418.49  E(vib)   ...       0.18 
freq.     424.06  E(vib)   ...       0.18 
freq.     440.66  E(vib)   ...       0.17 
freq.     460.89  E(vib)   ...       0.16 
freq.     470.77  E(vib)   ...       0.15 
freq.     486.45  E(vib)   ...       0.15 
freq.     496.24  E(vib)   ...       0.14 
freq.     503.10  E(vib)   ...       0.14 
freq.     512.93  E(vib)   ...       0.13 
freq.     529.37  E(vib)   ...       0.13 
freq.     538.16  E(vib)   ...       0.12 
freq.     551.54  E(vib)   ...       0.12 
freq.     628.47  E(vib)   ...       0.09 
freq.     628.69  E(vib)   ...       0.09 
freq.     629.00  E(vib)   ...       0.09 
freq.     629.66  E(vib)   ...       0.09 
freq.     663.73  E(vib)   ...       0.08 
freq.     692.61  E(vib)   ...       0.07 
freq.     716.09  E(vib)   ...       0.07 
freq.     716.34  E(vib)   ...       0.07 
freq.     720.49  E(vib)   ...       0.07 
freq.     722.29  E(vib)   ...       0.07 
freq.     723.90  E(vib)   ...       0.06 
freq.     723.99  E(vib)   ...       0.06 
freq.     724.96  E(vib)   ...       0.06 
freq.     727.49  E(vib)   ...       0.06 
freq.     733.26  E(vib)   ...       0.06 
freq.     766.45  E(vib)   ...       0.06 
freq.     768.05  E(vib)   ...       0.06 
freq.     774.93  E(vib)   ...       0.05 
freq.     777.18  E(vib)   ...       0.05 
freq.     829.23  E(vib)   ...       0.04 
freq.     867.31  E(vib)   ...       0.04 
freq.     873.88  E(vib)   ...       0.04 
freq.     875.19  E(vib)   ...       0.04 
freq.     875.76  E(vib)   ...       0.04 
freq.     893.22  E(vib)   ...       0.03 
freq.     944.95  E(vib)   ...       0.03 
freq.     955.61  E(vib)   ...       0.03 
freq.     956.22  E(vib)   ...       0.03 
freq.     957.23  E(vib)   ...       0.03 
freq.    1005.86  E(vib)   ...       0.02 
freq.    1011.98  E(vib)   ...       0.02 
freq.    1012.64  E(vib)   ...       0.02 
freq.    1013.84  E(vib)   ...       0.02 
freq.    1014.92  E(vib)   ...       0.02 
freq.    1016.44  E(vib)   ...       0.02 
freq.    1017.20  E(vib)   ...       0.02 
freq.    1017.97  E(vib)   ...       0.02 
freq.    1023.64  E(vib)   ...       0.02 
freq.    1031.76  E(vib)   ...       0.02 
freq.    1033.25  E(vib)   ...       0.02 
freq.    1034.98  E(vib)   ...       0.02 
freq.    1036.69  E(vib)   ...       0.02 
freq.    1057.93  E(vib)   ...       0.02 
freq.    1058.57  E(vib)   ...       0.02 
freq.    1060.57  E(vib)   ...       0.02 
freq.    1061.10  E(vib)   ...       0.02 
freq.    1081.09  E(vib)   ...       0.02 
freq.    1101.94  E(vib)   ...       0.02 
freq.    1102.73  E(vib)   ...       0.02 
freq.    1106.71  E(vib)   ...       0.02 
freq.    1108.43  E(vib)   ...       0.02 
freq.    1130.41  E(vib)   ...       0.01 
freq.    1133.17  E(vib)   ...       0.01 
freq.    1139.48  E(vib)   ...       0.01 
freq.    1139.95  E(vib)   ...       0.01 
freq.    1154.86  E(vib)   ...       0.01 
freq.    1170.79  E(vib)   ...       0.01 
freq.    1171.22  E(vib)   ...       0.01 
freq.    1172.21  E(vib)   ...       0.01 
freq.    1172.34  E(vib)   ...       0.01 
freq.    1191.77  E(vib)   ...       0.01 
freq.    1193.12  E(vib)   ...       0.01 
freq.    1198.13  E(vib)   ...       0.01 
freq.    1199.36  E(vib)   ...       0.01 
freq.    1251.48  E(vib)   ...       0.01 
freq.    1282.63  E(vib)   ...       0.01 
freq.    1317.96  E(vib)   ...       0.01 
freq.    1320.29  E(vib)   ...       0.01 
freq.    1324.45  E(vib)   ...       0.01 
freq.    1324.82  E(vib)   ...       0.01 
freq.    1389.81  E(vib)   ...       0.00 
freq.    1390.37  E(vib)   ...       0.00 
freq.    1391.42  E(vib)   ...       0.00 
freq.    1392.34  E(vib)   ...       0.00 
freq.    1423.72  E(vib)   ...       0.00 
freq.    1434.25  E(vib)   ...       0.00 
freq.    1474.08  E(vib)   ...       0.00 
freq.    1474.73  E(vib)   ...       0.00 
freq.    1475.50  E(vib)   ...       0.00 
freq.    1475.76  E(vib)   ...       0.00 
freq.    1515.55  E(vib)   ...       0.00 
freq.    1516.60  E(vib)   ...       0.00 
freq.    1520.26  E(vib)   ...       0.00 
freq.    1521.91  E(vib)   ...       0.00 
freq.    1656.17  E(vib)   ...       0.00 
freq.    1656.49  E(vib)   ...       0.00 
freq.    1657.55  E(vib)   ...       0.00 
freq.    1658.18  E(vib)   ...       0.00 
freq.    1672.91  E(vib)   ...       0.00 
freq.    1673.01  E(vib)   ...       0.00 
freq.    1675.22  E(vib)   ...       0.00 
freq.    1676.60  E(vib)   ...       0.00 
freq.    1936.97  E(vib)   ...       0.00 
freq.    2120.40  E(vib)   ...       0.00 
freq.    3062.82  E(vib)   ...       0.00 
freq.    3069.33  E(vib)   ...       0.00 
freq.    3132.23  E(vib)   ...       0.00 
freq.    3140.46  E(vib)   ...       0.00 
freq.    3165.68  E(vib)   ...       0.00 
freq.    3166.00  E(vib)   ...       0.00 
freq.    3195.72  E(vib)   ...       0.00 
freq.    3200.32  E(vib)   ...       0.00 
freq.    3201.74  E(vib)   ...       0.00 
freq.    3203.29  E(vib)   ...       0.00 
freq.    3206.19  E(vib)   ...       0.00 
freq.    3206.89  E(vib)   ...       0.00 
freq.    3209.19  E(vib)   ...       0.00 
freq.    3210.42  E(vib)   ...       0.00 
freq.    3213.11  E(vib)   ...       0.00 
freq.    3217.33  E(vib)   ...       0.00 
freq.    3217.57  E(vib)   ...       0.00 
freq.    3219.53  E(vib)   ...       0.00 
freq.    3221.94  E(vib)   ...       0.00 
freq.    3223.98  E(vib)   ...       0.00 
freq.    3226.66  E(vib)   ...       0.00 
freq.    3229.27  E(vib)   ...       0.00 
freq.    3229.71  E(vib)   ...       0.00 
freq.    3231.44  E(vib)   ...       0.00 

------------
INNER ENERGY
------------

The inner energy is: U= E(el) + E(ZPE) + E(vib) + E(rot) + E(trans)
    E(el)   - is the total energy from the electronic structure calculation
              = E(kin-el) + E(nuc-el) + E(el-el) + E(nuc-nuc)
    E(ZPE)  - the the zero temperature vibrational energy from the frequency calculation
    E(vib)  - the the finite temperature correction to E(ZPE) due to population
              of excited vibrational states
    E(rot)  - is the rotational thermal energy
    E(trans)- is the translational thermal energy

Summary of contributions to the inner energy U:
Electronic energy                ...  -1910.02764942 Eh
Zero point energy                ...      0.44302980 Eh     278.00 kcal/mol
Thermal vibrational correction   ...      0.02655147 Eh      16.66 kcal/mol
Thermal rotational correction    ...      0.00141627 Eh       0.89 kcal/mol
Thermal translational correction ...      0.00141627 Eh       0.89 kcal/mol
-----------------------------------------------------------------------
Total thermal energy                  -1909.55523561 Eh


Summary of corrections to the electronic energy:
(perhaps to be used in another calculation)
Total thermal correction                  0.02938401 Eh      18.44 kcal/mol
Non-thermal (ZPE) correction              0.44302980 Eh     278.00 kcal/mol
-----------------------------------------------------------------------
Total correction                          0.47241382 Eh     296.44 kcal/mol


--------
ENTHALPY
--------

The enthalpy is H = U + kB*T
                kB is Boltzmann's constant
Total free energy                 ...  -1909.55523561 Eh 
Thermal Enthalpy correction       ...      0.00094421 Eh       0.59 kcal/mol
-----------------------------------------------------------------------
Total Enthalpy                    ...  -1909.55429140 Eh


Note: Only C1 symmetry has been detected, increase convergence thresholds 
      if your molecule has a higher symmetry. Symmetry factor of 1.0 is   
      used for the rotational entropy correction. 
 

Note: Rotational entropy computed according to Herzberg 
Infrared and Raman Spectra, Chapter V,1, Van Nostrand Reinhold, 1945 
Point Group:  C1, Symmetry Number:   1  
Rotational constants in cm-1:     0.005218     0.003194     0.002604 

Vibrational entropy computed according to the QRRHO of S. Grimme
Chem.Eur.J. 2012 18 9955


-------
ENTROPY
-------

The entropy contributions are T*S = T*(S(el)+S(vib)+S(rot)+S(trans))
     S(el)   - electronic entropy
     S(vib)  - vibrational entropy
     S(rot)  - rotational entropy
     S(trans)- translational entropy
The entropies will be listed as mutliplied by the temperature to get
units of energy

Electronic entropy                ...      0.00000000 Eh      0.00 kcal/mol
Vibrational entropy               ...      0.04845986 Eh     30.41 kcal/mol
Rotational entropy                ...      0.01751406 Eh     10.99 kcal/mol
Translational entropy             ...      0.02123411 Eh     13.32 kcal/mol
-----------------------------------------------------------------------
Final entropy term                ...      0.08720804 Eh     54.72 kcal/mol

In case the symmetry of your molecule has not been determined correctly
or in case you have a reason to use a different symmetry number we print 
out the resulting rotational entropy values for sn=1,12 :
 --------------------------------------------------------
|  sn= 1 | S(rot)=       0.01751406 Eh     10.99 kcal/mol|
|  sn= 2 | S(rot)=       0.01685960 Eh     10.58 kcal/mol|
|  sn= 3 | S(rot)=       0.01647677 Eh     10.34 kcal/mol|
|  sn= 4 | S(rot)=       0.01620515 Eh     10.17 kcal/mol|
|  sn= 5 | S(rot)=       0.01599446 Eh     10.04 kcal/mol|
|  sn= 6 | S(rot)=       0.01582232 Eh      9.93 kcal/mol|
|  sn= 7 | S(rot)=       0.01567677 Eh      9.84 kcal/mol|
|  sn= 8 | S(rot)=       0.01555069 Eh      9.76 kcal/mol|
|  sn= 9 | S(rot)=       0.01543948 Eh      9.69 kcal/mol|
|  sn=10 | S(rot)=       0.01534000 Eh      9.63 kcal/mol|
|  sn=11 | S(rot)=       0.01525001 Eh      9.57 kcal/mol|
|  sn=12 | S(rot)=       0.01516786 Eh      9.52 kcal/mol|
 --------------------------------------------------------


-------------------
GIBBS FREE ENERGY
-------------------

The Gibbs free energy is G = H - T*S

Total enthalpy                    ...  -1909.55429140 Eh 
Total entropy correction          ...     -0.08720804 Eh    -54.72 kcal/mol
-----------------------------------------------------------------------
Final Gibbs free energy         ...  -1909.64149943 Eh

For completeness - the Gibbs free energy minus the electronic energy
G-E(el)                           ...      0.38614999 Eh    242.31 kcal/mol

--------------------------------------------------------------------------
[[46311,1],3]: A high-performance Open MPI point-to-point messaging module
was unable to find any relevant network interfaces:

Module: OpenFabrics (openib)
  Host: eu-g5-024-3

Another transport will be used instead, although this may result in
lower performance.

NOTE: You can disable this warning by setting the MCA parameter
btl_base_warn_component_unused to 0.
--------------------------------------------------------------------------

Timings for individual modules:

Sum of individual times         ...    14993.874 sec (= 249.898 min)
GTO integral calculation        ...       42.769 sec (=   0.713 min)   0.3 %
SCF iterations                  ...     2875.027 sec (=  47.917 min)  19.2 %
SCF Gradient evaluation         ...      867.793 sec (=  14.463 min)   5.8 %
Geometry relaxation             ...       13.374 sec (=   0.223 min)   0.1 %
Analytical frequency calculation...    11194.912 sec (= 186.582 min)  74.7 %
                             ****ORCA TERMINATED NORMALLY****
TOTAL RUN TIME: 0 days 4 hours 10 minutes 18 seconds 115 msec
