
                                 *****************
                                 * O   R   C   A *
                                 *****************

           --- An Ab Initio, DFT and Semiempirical electronic structure package ---

                  #######################################################
                  #                        -***-                        #
                  #          Department of theory and spectroscopy      #
                  #               Directorship: Frank Neese             #
                  #        Max Planck Institute fuer Kohlenforschung    #
                  #                Kaiser Wilhelm Platz 1               #
                  #                 D-45470 Muelheim/Ruhr               #
                  #                      Germany                        #
                  #                                                     #
                  #                  All rights reserved                #
                  #                        -***-                        #
                  #######################################################


                         Program Version 4.2.0 -  RELEASE  -


 With contributions from (in alphabetic order):
   Daniel Aravena         : Magnetic Suceptibility
   Michael Atanasov       : Ab Initio Ligand Field Theory (pilot matlab implementation)
   Alexander A. Auer      : GIAO ZORA, VPT2
   Ute Becker             : Parallelization
   Giovanni Bistoni       : ED, misc. LED, open-shell LED, HFLED
   Martin Brehm           : Molecular dynamics
   Dmytro Bykov           : SCF Hessian
   Vijay G. Chilkuri      : MRCI spin determinant printing, contributions to CSF-ICE
   Dipayan Datta          : RHF DLPNO-CCSD density
   Achintya Kumar Dutta   : EOM-CC, STEOM-CC
   Dmitry Ganyushin       : Spin-Orbit,Spin-Spin,Magnetic field MRCI
   Miquel Garcia          : C-PCM Hessian, Gaussian charge scheme
   Yang Guo               : DLPNO-NEVPT2, CIM, IAO-localization
   Andreas Hansen         : Spin unrestricted coupled pair/coupled cluster methods
   Benjamin Helmich-Paris : CASSCF linear response (MC-RPA)
   Lee Huntington         : MR-EOM, pCC
   Robert Izsak           : Overlap fitted RIJCOSX, COSX-SCS-MP3, EOM
   Christian Kollmar      : KDIIS, OOCD, Brueckner-CCSD(T), CCSD density
   Simone Kossmann        : Meta GGA functionals, TD-DFT gradient, OOMP2, MP2 Hessian
   Martin Krupicka        : AUTO-CI
   Lucas Lang             : DCDCAS
   Dagmar Lenk            : GEPOL surface, SMD
   Dimitrios Liakos       : Extrapolation schemes; Compound Job, initial MDCI parallelization
   Dimitrios Manganas     : Further ROCIS development; embedding schemes
   Dimitrios Pantazis     : SARC Basis sets
   Taras Petrenko         : DFT Hessian,TD-DFT gradient, ASA, ECA, R-Raman, ABS, FL, XAS/XES, NRVS
   Peter Pinski           : DLPNO-MP2, DLPNO-MP2 Gradient
   Christoph Reimann      : Effective Core Potentials
   Marius Retegan         : Local ZFS, SOC
   Christoph Riplinger    : Optimizer, TS searches, QM/MM, DLPNO-CCSD(T), (RO)-DLPNO pert. Triples
   Tobias Risthaus        : Range-separated hybrids, TD-DFT gradient, RPA, STAB
   Michael Roemelt        : Original ROCIS implementation
   Masaaki Saitow         : Open-shell DLPNO-CCSD energy and density
   Barbara Sandhoefer     : DKH picture change effects
   Avijit Sen             : IP-ROCIS
   Kantharuban Sivalingam : CASSCF convergence, NEVPT2, FIC-MRCI
   Bernardo de Souza      : ESD, SOC TD-DFT
   Georgi Stoychev        : AutoAux, RI-MP2 NMR
   Willem Van den Heuvel  : Paramagnetic NMR
   Boris Wezisla          : Elementary symmetry handling
   Frank Wennmohs         : Technical directorship


 We gratefully acknowledge several colleagues who have allowed us to
 interface, adapt or use parts of their codes:
   Stefan Grimme, W. Hujo, H. Kruse,             : VdW corrections, initial TS optimization,
                  C. Bannwarth                     DFT functionals, gCP, sTDA/sTD-DF
   Ed Valeev, F. Pavosevic, A. Kumar             : LibInt (2-el integral package), F12 methods
   Garnet Chan, S. Sharma, J. Yang, R. Olivares  : DMRG
   Ulf Ekstrom                                   : XCFun DFT Library
   Mihaly Kallay                                 : mrcc  (arbitrary order and MRCC methods)
   Andreas Klamt, Michael Diedenhofen            : otool_cosmo (COSMO solvation model)
   Jiri Pittner, Ondrej Demel                    : Mk-CCSD
   Frank Weinhold                                : gennbo (NPA and NBO analysis)
   Christopher J. Cramer and Donald G. Truhlar   : smd solvation model
   Lars Goerigk                                  : TD-DFT with DH, B97 family of functionals
   V. Asgeirsson, H. Jonsson                     : NEB implementation
   FAccTs GmbH                                   : IRC, NEB, NEB-TS, Multilevel, MM, QM/MM, CI optimization
   S Lehtola, MJT Oliveira, MAL Marques          : LibXC Library


 Your calculation uses the libint2 library for the computation of 2-el integrals
 For citations please refer to: http://libint.valeyev.net

 Your ORCA version has been built with support for libXC version: 4.2.3
 For citations please refer to: https://tddft.org/programs/libxc/

 This ORCA versions uses:
   CBLAS   interface :  Fast vector & matrix operations
   LAPACKE interface :  Fast linear algebra routines
   SCALAPACK package :  Parallel linear algebra routines




***************************************
The coordinates will be read from file: xtbopt.xyz
***************************************


Your calculation utilizes the atom-pairwise dispersion correction
with the Becke-Johnson damping scheme (D3BJ)
Cite in your paper:
S.Grimme, S.Ehrlich, L.Goerigk, J Comput Chem, (2011), 32, 1456–1465 
S.Grimme, J.Antony, S.Ehrlich and H.Krieg, J.Chem.Phys., 132, (2010), 154104 
   

----- Orbital basis set information -----
Your calculation utilizes the basis: def2-SVP
   F. Weigend and R. Ahlrichs, Phys. Chem. Chem. Phys. 7, 3297 (2005).

----- AuxJ basis set information -----
Your calculation utilizes the auxiliary basis: def2/J
   F. Weigend, Phys. Chem. Chem. Phys. 8, 1057 (2006).

cite the ECPs for Rh [Def2-ECP] as follows:
Ce-Yb(ecp-28): M. Dolg, H. Stoll, H.Preuss, J. Chem. Phys., 1989, 90, 1730-1734.
Y-Cd(ecp-28), Hf-Hg(ecp-46): D. Andrae,U. Haeussermann, M. Dolg, H. Stoll, H. Preuss, Theor. Chim. Acta, 1990, 77, 123-141.
In-Sb(ecp-28), Tl-Bi(ecp-46): B. Metz, H. Stoll, M. Dolg, J. Chem. Phys., 2000, 113, 2563-2569.
Te-Xe(ecp-28), Po-Rn(ecp-46): K. A. Peterson, D. Figgen, E. Goll, H. Stoll, M. Dolg, J. Chem. Phys., 2003, 119, 11113-11123.
Rb(ecp-28), Cs(ecp-46): T. Leininger, A. Nicklass, W. Kuechle, H. Stoll, M. Dolg, A. Bergner, Chem. Phys. Lett., 1996, 255, 274-280.
Sr(ecp-28), Ba(ecp-46): M. Kaupp, P. V. Schleyer, H. Stoll and H. Preuss, J. Chem. Phys., 1991, 94, 1360-1366.
La(ecp-46): M. Dolg, H. Stoll, A. Savin, H. Preuss, Theor. Chim. Acta, 1989, 75, 173-194.
Lu(ecp-28): X. Cao, M. Dolg, J. Chem. Phys., 2001, 115, 7348-7355.

ECP parameters for Rh [Def2-ECP] have been obtained from:
TURBOMOLE (7.0.2)

================================================================================
                                        WARNINGS
                       Please study these warnings very carefully!
================================================================================


WARNING: Split-RI-J cannot be used together with RIJONX
  ===> : Split-RI-J will be disabled

WARNING: Geometry Optimization
  ===> : Switching off AutoStart
         For restart on a previous wavefunction, please use MOREAD

INFO   : the flag for use of LIBINT has been found!

================================================================================
                                       INPUT FILE
================================================================================
NAME = TEP_Rh.inp
|  1> ! PBE0 def2-SVP RIJDX D3BJ opt freq
|  2> %pal nprocs 10 end
|  3> %maxcore 3036
|  4> 
|  5> %basis
|  6>   newgto Rh "def2-TZVP" end
|  7> end
|  8> 
|  9> *xyzfile 0 1 xtbopt.xyz
| 10> 
| 11>                          ****END OF INPUT****
================================================================================

                       *****************************
                       * Geometry Optimization Run *
                       *****************************

Geometry optimization settings:
Update method            Update   .... BFGS
Choice of coordinates    CoordSys .... Z-matrix Internals
Initial Hessian          InHess   .... Almoef's Model

Convergence Tolerances:
Energy Change            TolE     ....  5.0000e-06 Eh
Max. Gradient            TolMAXG  ....  3.0000e-04 Eh/bohr
RMS Gradient             TolRMSG  ....  1.0000e-04 Eh/bohr
Max. Displacement        TolMAXD  ....  4.0000e-03 bohr
RMS Displacement         TolRMSD  ....  2.0000e-03 bohr
Strict Convergence                ....  False
------------------------------------------------------------------------------
                        ORCA OPTIMIZATION COORDINATE SETUP
------------------------------------------------------------------------------

The optimization will be done in new redundant internal coordinates
Making redundant internal coordinates   ...  (new redundants) done
Evaluating the initial hessian          ...  (Almloef) done
Evaluating the coordinates              ...  done
Calculating the B-matrix                .... done
Calculating the G-matrix                .... done
Diagonalizing the G-matrix              .... done
Small eigenvalue found = 3.724e-03
Small eigenvalue found = 5.012e-03
Small eigenvalue found = 9.956e-03
Small eigenvalue found = 1.029e-02
Small eigenvalue found = 1.320e-02
Small eigenvalue found = 1.652e-02
The first mode is                       ....  185
The number of degrees of freedom        ....  162

    -----------------------------------------------------------------
                    Redundant Internal Coordinates


    -----------------------------------------------------------------
         Definition                    Initial Value    Approx d2E/dq
    -----------------------------------------------------------------
      1. B(Rh  1,H   0)                  1.5243         0.738877   
      2. B(P   2,Rh  1)                  2.2277         0.979060   
      3. B(C   3,P   2)                  1.8377         0.405518   
      4. B(C   4,C   3)                  1.3939         0.615848   
      5. B(F   5,C   4)                  1.3387         0.627835   
      6. B(C   6,C   4)                  1.3867         0.632513   
      7. B(F   7,C   6)                  1.3314         0.644924   
      8. B(C   8,C   6)                  1.3941         0.615552   
      9. B(F   9,C   8)                  1.3288         0.650963   
     10. B(C  10,C   8)                  1.3915         0.621442   
     11. B(F  11,C  10)                  1.3319         0.643735   
     12. B(C  12,C  10)                  1.3926         0.618759   
     13. B(C  12,C   3)                  1.3898         0.625296   
     14. B(F  13,C  12)                  1.3337         0.639315   
     15. B(C  14,P   2)                  1.8517         0.385088   
     16. B(C  15,C  14)                  1.3890         0.627075   
     17. B(F  16,C  15)                  1.3395         0.625863   
     18. B(F  16,Rh  1)                  2.7171         0.040156   
     19. B(C  17,C  15)                  1.3902         0.624263   
     20. B(F  18,C  17)                  1.3306         0.646681   
     21. B(C  19,C  17)                  1.3937         0.616459   
     22. B(F  20,C  19)                  1.3280         0.653007   
     23. B(C  21,C  19)                  1.3941         0.615505   
     24. B(F  22,C  21)                  1.3313         0.644987   
     25. B(C  23,C  21)                  1.3903         0.624087   
     26. B(C  23,C  14)                  1.3888         0.627632   
     27. B(F  24,C  23)                  1.3391         0.626855   
     28. B(C  25,P   2)                  1.8540         0.381840   
     29. B(C  26,C  25)                  1.5271         0.377611   
     30. B(P  27,C  26)                  1.8735         0.355435   
     31. B(P  27,Rh  1)                  2.2374         0.944727   
     32. B(C  28,P  27)                  1.8440         0.396202   
     33. B(C  29,C  28)                  1.3902         0.624352   
     34. B(F  30,C  29)                  1.3339         0.638904   
     35. B(C  31,C  29)                  1.3920         0.620313   
     36. B(C  32,C  31)                  1.3930         0.618061   
     37. B(F  33,C  32)                  1.3281         0.652717   
     38. B(C  34,C  32)                  1.3943         0.614993   
     39. B(F  35,C  34)                  1.3320         0.643446   
     40. B(F  36,C  31)                  1.3296         0.649205   
     41. B(C  37,C  34)                  1.3885         0.628277   
     42. B(C  37,C  28)                  1.3904         0.623884   
     43. B(F  38,C  37)                  1.3378         0.629931   
     44. B(C  39,P  27)                  1.8434         0.397096   
     45. B(C  40,C  39)                  1.3903         0.624074   
     46. B(F  41,C  40)                  1.3376         0.630235   
     47. B(C  42,C  40)                  1.3932         0.617580   
     48. B(F  43,C  42)                  1.3313         0.644990   
     49. B(C  44,C  42)                  1.3917         0.620828   
     50. B(F  45,C  44)                  1.3284         0.652007   
     51. B(C  46,C  44)                  1.3951         0.613201   
     52. B(F  47,C  46)                  1.3305         0.646924   
     53. B(C  48,C  46)                  1.3853         0.635668   
     54. B(C  48,C  39)                  1.3939         0.615827   
     55. B(F  49,C  48)                  1.3405         0.623672   
     56. B(C  50,Rh  1)                  1.8481         1.175078   
     57. B(O  51,C  50)                  1.1426         1.388670   
     58. B(H  52,C  25)                  1.0920         0.357469   
     59. B(H  53,C  25)                  1.0891         0.361305   
     60. B(H  54,C  26)                  1.0958         0.352507   
     61. B(H  55,C  26)                  1.0917         0.357877   
     62. A(P  27,Rh  1,C  50)           97.9853         0.709985   
     63. A(P   2,Rh  1,C  50)          168.2289         0.715023   
     64. A(H   0,Rh  1,P  27)          174.4546         0.596089   
     65. A(F  16,Rh  1,C  50)          119.7975         0.372512   
     66. A(P   2,Rh  1,P  27)           84.4431         0.721360   
     67. A(H   0,Rh  1,P   2)           92.0807         0.600203   
     68. A(H   0,Rh  1,C  50)           84.5634         0.591008   
     69. A(P   2,Rh  1,F  16)           71.7659         0.377705   
     70. A(F  16,Rh  1,P  27)           86.1659         0.375382   
     71. A(H   0,Rh  1,F  16)           96.8688         0.320513   
     72. A(C  14,P   2,C  25)           99.1606         0.415792   
     73. A(Rh  1,P   2,C  14)          115.1338         0.545866   
     74. A(C   3,P   2,C  14)           97.7398         0.420273   
     75. A(C   3,P   2,C  25)          104.8765         0.419638   
     76. A(Rh  1,P   2,C  25)          110.2838         0.544991   
     77. A(Rh  1,P   2,C   3)          125.9175         0.551242   
     78. A(C   4,C   3,C  12)          116.9127         0.434206   
     79. A(P   2,C   3,C  12)          127.4788         0.429738   
     80. A(P   2,C   3,C   4)          115.1054         0.428566   
     81. A(C   3,C   4,F   5)          117.7111         0.429766   
     82. A(F   5,C   4,C   6)          119.4359         0.431831   
     83. A(C   3,C   4,C   6)          122.8500         0.435103   
     84. A(C   4,C   6,F   7)          120.7338         0.433921   
     85. A(F   7,C   6,C   8)          120.2396         0.431806   
     86. A(C   4,C   6,C   8)          119.0266         0.435066   
     87. A(C   6,C   8,F   9)          120.2728         0.432530   
     88. A(F   9,C   8,C  10)          120.2912         0.433271   
     89. A(C   6,C   8,C  10)          119.4359         0.433685   
     90. A(C   8,C  10,F  11)          119.9222         0.432402   
     91. A(F  11,C  10,C  12)          119.9065         0.432066   
     92. A(C   8,C  10,C  12)          120.1711         0.434091   
     93. A(C   3,C  12,F  13)          120.5453         0.432347   
     94. A(C  10,C  12,F  13)          117.8806         0.431531   
     95. A(C   3,C  12,C  10)          121.5714         0.434574   
     96. A(P   2,C  14,C  15)          117.6504         0.425991   
     97. A(C  15,C  14,C  23)          117.6837         0.435913   
     98. A(P   2,C  14,C  23)          124.6418         0.426059   
     99. A(F  16,C  15,C  17)          119.4414         0.430571   
    100. A(C  14,C  15,C  17)          122.0222         0.435490   
    101. A(C  14,C  15,F  16)          118.5343         0.430918   
    102. A(Rh  1,F  16,C  15)          116.8908         0.298930   
    103. A(C  15,C  17,C  19)          119.2268         0.434154   
    104. A(C  15,C  17,F  18)          120.6492         0.433110   
    105. A(F  18,C  17,C  19)          120.1224         0.432131   
    106. A(F  20,C  19,C  21)          120.0004         0.432768   
    107. A(C  17,C  19,C  21)          119.8184         0.433052   
    108. A(C  17,C  19,F  20)          120.1804         0.432888   
    109. A(F  22,C  21,C  23)          120.4309         0.432883   
    110. A(C  19,C  21,C  23)          119.5109         0.434011   
    111. A(C  19,C  21,F  22)          120.0573         0.431807   
    112. A(C  21,C  23,F  24)          119.1448         0.430671   
    113. A(C  14,C  23,F  24)          119.1250         0.431110   
    114. A(C  14,C  23,C  21)          121.7299         0.435538   
    115. A(P   2,C  25,H  53)          106.9803         0.345774   
    116. A(C  26,C  25,H  52)          111.3126         0.324501   
    117. A(P   2,C  25,H  52)          111.6265         0.345154   
    118. A(P   2,C  25,C  26)          108.9088         0.388868   
    119. A(C  26,C  25,H  53)          109.7553         0.325070   
    120. A(H  52,C  25,H  53)          108.1519         0.290657   
    121. A(H  54,C  26,H  55)          108.1872         0.289587   
    122. A(P  27,C  26,H  55)          111.4381         0.341098   
    123. A(P  27,C  26,H  54)          105.6519         0.340237   
    124. A(C  25,C  26,H  54)          109.6902         0.323757   
    125. A(C  25,C  26,P  27)          110.8963         0.384043   
    126. A(C  25,C  26,H  55)          110.8036         0.324562   
    127. A(C  26,P  27,C  28)           99.5430         0.412612   
    128. A(Rh  1,P  27,C  28)          121.8667         0.545117   
    129. A(Rh  1,P  27,C  26)          111.6228         0.534044   
    130. A(C  28,P  27,C  39)          100.3590         0.420833   
    131. A(C  26,P  27,C  39)          102.9861         0.412777   
    132. A(Rh  1,P  27,C  39)          117.5101         0.545350   
    133. A(P  27,C  28,C  29)          117.4385         0.427834   
    134. A(C  29,C  28,C  37)          117.8007         0.435101   
    135. A(P  27,C  28,C  37)          124.7392         0.427777   
    136. A(F  30,C  29,C  31)          119.4238         0.431676   
    137. A(C  28,C  29,C  31)          121.7611         0.434652   
    138. A(C  28,C  29,F  30)          118.8146         0.432180   
    139. A(C  29,C  31,C  32)          119.3211         0.433861   
    140. A(C  32,C  31,F  36)          120.0049         0.432636   
    141. A(C  29,C  31,F  36)          120.6739         0.432919   
    142. A(F  33,C  32,C  34)          119.9100         0.432668   
    143. A(C  31,C  32,C  34)          119.9060         0.433189   
    144. A(C  31,C  32,F  33)          120.1838         0.433056   
    145. A(C  32,C  34,F  35)          120.0835         0.431557   
    146. A(F  35,C  34,C  37)          120.4528         0.433218   
    147. A(C  32,C  34,C  37)          119.4637         0.434469   
    148. A(C  34,C  37,F  38)          119.2934         0.431568   
    149. A(C  28,C  37,F  38)          118.9431         0.431025   
    150. A(C  28,C  37,C  34)          121.7460         0.435593   
    151. A(C  40,C  39,C  48)          116.7448         0.434050   
    152. A(P  27,C  39,C  48)          112.9357         0.426954   
    153. A(P  27,C  39,C  40)          129.4810         0.427973   
    154. A(F  41,C  40,C  42)          117.6342         0.430277   
    155. A(C  39,C  40,C  42)          121.4308         0.434272   
    156. A(C  39,C  40,F  41)          120.9338         0.431086   
    157. A(F  43,C  42,C  44)          119.9127         0.432477   
    158. A(C  40,C  42,C  44)          120.2906         0.433865   
    159. A(C  40,C  42,F  43)          119.7964         0.432069   
    160. A(F  45,C  44,C  46)          120.2837         0.432357   
    161. A(C  42,C  44,C  46)          119.4670         0.433310   
    162. A(C  42,C  44,F  45)          120.2441         0.433319   
    163. A(F  47,C  46,C  48)          120.9481         0.434552   
    164. A(C  44,C  46,C  48)          118.7328         0.435156   
    165. A(C  44,C  46,F  47)          120.3184         0.431749   
    166. A(C  46,C  48,F  49)          119.9990         0.431701   
    167. A(C  39,C  48,F  49)          116.7696         0.429250   
    168. A(C  39,C  48,C  46)          123.2184         0.435491   
    169. L(Rh  1,C  50,O  51,P  27, 2) 185.1645         0.637254   
    170. L(Rh  1,C  50,O  51,P  27, 1) 177.5362         0.637254   
    171. D(C  14,P   2,Rh  1,H   0)     95.9226         0.002857   
    172. D(C  14,P   2,Rh  1,P  27)    -88.4083         0.002857   
    173. D(C  25,P   2,Rh  1,C  50)    -79.8047         0.002857   
    174. D(C  14,P   2,Rh  1,C  50)    169.0414         0.002857   
    175. D(C  25,P   2,Rh  1,H   0)   -152.9235         0.002857   
    176. D(C   3,P   2,Rh  1,F  16)   -122.1935         0.002857   
    177. D(C  25,P   2,Rh  1,F  16)    110.5286         0.002857   
    178. D(C  25,P   2,Rh  1,P  27)     22.7456         0.002857   
    179. D(C  14,P   2,Rh  1,F  16)     -0.6252         0.002857   
    180. D(C   3,P   2,Rh  1,C  50)     47.4731         0.002857   
    181. D(C   3,P   2,Rh  1,P  27)    150.0234         0.002857   
    182. D(C   3,P   2,Rh  1,H   0)    -25.6457         0.002857   
    183. D(C   4,C   3,P   2,C  25)   -159.1864         0.003728   
    184. D(C   4,C   3,P   2,C  14)    -57.5124         0.003728   
    185. D(C  12,C   3,P   2,C  14)    130.9432         0.003728   
    186. D(C   4,C   3,P   2,Rh  1)     71.3699         0.003728   
    187. D(C  12,C   3,P   2,C  25)     29.2692         0.003728   
    188. D(C  12,C   3,P   2,Rh  1)   -100.1745         0.003728   
    189. D(F   5,C   4,C   3,C  12)    178.5052         0.026223   
    190. D(C   6,C   4,C   3,C  12)     -2.1349         0.026223   
    191. D(C   6,C   4,C   3,P   2)   -174.6154         0.026223   
    192. D(F   5,C   4,C   3,P   2)      6.0247         0.026223   
    193. D(C   8,C   6,C   4,C   3)      1.1476         0.027753   
    194. D(C   8,C   6,C   4,F   5)   -179.5031         0.027753   
    195. D(F   7,C   6,C   4,C   3)   -178.7565         0.027753   
    196. D(F   7,C   6,C   4,F   5)      0.5928         0.027753   
    197. D(C  10,C   8,C   6,F   7)   -179.9464         0.026196   
    198. D(F   9,C   8,C   6,C   4)   -179.9175         0.026196   
    199. D(F   9,C   8,C   6,F   7)     -0.0129         0.026196   
    200. D(C  10,C   8,C   6,C   4)      0.1490         0.026196   
    201. D(F  11,C  10,C   8,C   6)    179.7878         0.026731   
    202. D(F  11,C  10,C   8,F   9)     -0.1457         0.026731   
    203. D(C  12,C  10,C   8,F   9)    179.7042         0.026731   
    204. D(C  12,C  10,C   8,C   6)     -0.3623         0.026731   
    205. D(F  13,C  12,C  10,F  11)     -0.2577         0.026487   
    206. D(F  13,C  12,C  10,C   8)    179.8923         0.026487   
    207. D(C   3,C  12,C  10,F  11)    179.1507         0.026487   
    208. D(C   3,C  12,C  10,C   8)     -0.6993         0.026487   
    209. D(C  10,C  12,C   3,C   4)      1.8880         0.027084   
    210. D(F  13,C  12,C   3,C   4)   -178.7192         0.027084   
    211. D(F  13,C  12,C   3,P   2)     -7.3070         0.027084   
    212. D(C  10,C  12,C   3,P   2)    173.3003         0.027084   
    213. D(C  23,C  14,P   2,C  25)     64.2774         0.003503   
    214. D(C  23,C  14,P   2,C   3)    -42.2433         0.003503   
    215. D(C  23,C  14,P   2,Rh  1)   -178.1075         0.003503   
    216. D(C  15,C  14,P   2,C  25)   -117.5531         0.003503   
    217. D(C  15,C  14,P   2,C   3)    135.9262         0.003503   
    218. D(C  15,C  14,P   2,Rh  1)      0.0620         0.003503   
    219. D(C  17,C  15,C  14,C  23)     -0.9800         0.027248   
    220. D(C  17,C  15,C  14,P   2)   -179.2794         0.027248   
    221. D(F  16,C  15,C  14,C  23)    179.5472         0.027248   
    222. D(F  16,C  15,C  14,P   2)      1.2478         0.027248   
    223. D(C  15,F  16,Rh  1,C  50)   -176.1907         0.001510   
    224. D(C  15,F  16,Rh  1,P   2)      1.3926         0.001510   
    225. D(C  15,F  16,Rh  1,H   0)    -88.5397         0.001510   
    226. D(C  15,F  16,Rh  1,P  27)     86.7980         0.001510   
    227. D(Rh  1,F  16,C  15,C  17)    178.7034         0.032030   
    228. D(Rh  1,F  16,C  15,C  14)     -1.8098         0.032030   
    229. D(C  19,C  17,C  15,F  16)   -179.4945         0.026989   
    230. D(C  19,C  17,C  15,C  14)      1.0373         0.026989   
    231. D(F  18,C  17,C  15,F  16)      0.9684         0.026989   
    232. D(F  18,C  17,C  15,C  14)   -178.4998         0.026989   
    233. D(F  20,C  19,C  17,C  15)    179.9320         0.026278   
    234. D(C  21,C  19,C  17,F  18)    179.1408         0.026278   
    235. D(C  21,C  19,C  17,C  15)     -0.3987         0.026278   
    236. D(F  20,C  19,C  17,F  18)     -0.5285         0.026278   
    237. D(C  23,C  21,C  19,F  20)    179.4209         0.026192   
    238. D(C  23,C  21,C  19,C  17)     -0.2490         0.026192   
    239. D(F  22,C  21,C  19,F  20)     -0.2279         0.026192   
    240. D(F  22,C  21,C  19,C  17)   -179.8978         0.026192   
    241. D(F  24,C  23,C  21,F  22)      0.1523         0.026973   
    242. D(F  24,C  23,C  21,C  19)   -179.4951         0.026973   
    243. D(C  14,C  23,C  21,F  22)    179.9456         0.026973   
    244. D(C  14,C  23,C  21,C  19)      0.2981         0.026973   
    245. D(F  24,C  23,C  14,C  15)   -179.9034         0.027300   
    246. D(F  24,C  23,C  14,P   2)     -1.7345         0.027300   
    247. D(C  21,C  23,C  14,C  15)      0.3033         0.027300   
    248. D(C  21,C  23,C  14,P   2)    178.4722         0.027300   
    249. D(H  53,C  25,P   2,C   3)    -60.1376         0.003624   
    250. D(H  53,C  25,P   2,Rh  1)     78.0447         0.003624   
    251. D(H  52,C  25,P   2,C  14)    -42.6099         0.003624   
    252. D(H  52,C  25,P   2,C   3)     57.9919         0.003624   
    253. D(H  52,C  25,P   2,Rh  1)   -163.8258         0.003624   
    254. D(C  26,C  25,P   2,C  14)     80.6946         0.003624   
    255. D(C  26,C  25,P   2,C   3)   -178.7035         0.003624   
    256. D(H  53,C  25,P   2,C  14)   -160.7394         0.003624   
    257. D(C  26,C  25,P   2,Rh  1)    -40.5212         0.003624   
    258. D(H  55,C  26,C  25,H  53)     43.6909         0.011372   
    259. D(H  55,C  26,C  25,P   2)    160.5007         0.011372   
    260. D(H  54,C  26,C  25,H  53)    163.0703         0.011372   
    261. D(H  54,C  26,C  25,H  52)     43.3719         0.011372   
    262. D(H  54,C  26,C  25,P   2)    -80.1199         0.011372   
    263. D(P  27,C  26,C  25,H  53)    -80.6121         0.011372   
    264. D(H  55,C  26,C  25,H  52)    -76.0074         0.011372   
    265. D(P  27,C  26,C  25,H  52)    159.6896         0.011372   
    266. D(P  27,C  26,C  25,P   2)     36.1977         0.011372   
    267. D(C  39,P  27,C  26,H  55)    -15.9340         0.003334   
    268. D(C  39,P  27,C  26,H  54)   -133.2084         0.003334   
    269. D(C  39,P  27,C  26,C  25)    108.0073         0.003334   
    270. D(C  28,P  27,C  26,H  55)     87.1214         0.003334   
    271. D(C  28,P  27,C  26,H  54)    -30.1530         0.003334   
    272. D(C  28,P  27,C  26,C  25)   -148.9373         0.003334   
    273. D(Rh  1,P  27,C  26,H  54)     99.8268         0.003334   
    274. D(Rh  1,P  27,C  26,C  25)    -18.9576         0.003334   
    275. D(C  39,P  27,Rh  1,C  50)     45.3881         0.002765   
    276. D(C  39,P  27,Rh  1,F  16)    164.9607         0.002765   
    277. D(C  39,P  27,Rh  1,P   2)   -123.0119         0.002765   
    278. D(C  39,P  27,Rh  1,H   0)    -71.6650         0.002765   
    279. D(C  28,P  27,Rh  1,C  50)    -78.8383         0.002765   
    280. D(Rh  1,P  27,C  26,H  55)   -142.8988         0.003334   
    281. D(C  28,P  27,Rh  1,F  16)     40.7343         0.002765   
    282. D(C  28,P  27,Rh  1,P   2)    112.7617         0.002765   
    283. D(C  28,P  27,Rh  1,H   0)    164.1086         0.002765   
    284. D(C  26,P  27,Rh  1,C  50)    164.0068         0.002765   
    285. D(C  26,P  27,Rh  1,F  16)    -76.4206         0.002765   
    286. D(C  26,P  27,Rh  1,P   2)     -4.3932         0.002765   
    287. D(C  26,P  27,Rh  1,H   0)     46.9537         0.002765   
    288. D(C  37,C  28,P  27,C  39)     64.2380         0.003624   
    289. D(C  37,C  28,P  27,C  26)    -40.9730         0.003624   
    290. D(C  37,C  28,P  27,Rh  1)   -163.9626         0.003624   
    291. D(C  29,C  28,P  27,C  39)   -117.4959         0.003624   
    292. D(C  29,C  28,P  27,C  26)    137.2931         0.003624   
    293. D(C  29,C  28,P  27,Rh  1)     14.3035         0.003624   
    294. D(C  31,C  29,C  28,C  37)      0.2735         0.026997   
    295. D(C  31,C  29,C  28,P  27)   -178.1158         0.026997   
    296. D(F  30,C  29,C  28,C  37)   -179.4713         0.026997   
    297. D(F  30,C  29,C  28,P  27)      2.1394         0.026997   
    298. D(F  36,C  31,C  29,F  30)     -0.1364         0.026628   
    299. D(F  36,C  31,C  29,C  28)   -179.8797         0.026628   
    300. D(C  32,C  31,C  29,F  30)    179.7775         0.026628   
    301. D(C  32,C  31,C  29,C  28)      0.0343         0.026628   
    302. D(C  34,C  32,C  31,F  36)    179.6011         0.026423   
    303. D(C  34,C  32,C  31,C  29)     -0.3134         0.026423   
    304. D(F  33,C  32,C  31,F  36)     -0.2476         0.026423   
    305. D(F  33,C  32,C  31,C  29)    179.8379         0.026423   
    306. D(C  37,C  34,C  32,F  33)   -179.8736         0.026146   
    307. D(C  37,C  34,C  32,C  31)      0.2773         0.026146   
    308. D(F  35,C  34,C  32,F  33)      0.0956         0.026146   
    309. D(F  35,C  34,C  32,C  31)   -179.7535         0.026146   
    310. D(F  38,C  37,C  34,F  35)      1.6053         0.027359   
    311. D(F  38,C  37,C  34,C  32)   -178.4257         0.027359   
    312. D(C  28,C  37,C  34,F  35)   -179.9285         0.027359   
    313. D(C  28,C  37,C  34,C  32)      0.0406         0.027359   
    314. D(F  38,C  37,C  28,C  29)    178.1601         0.026954   
    315. D(F  38,C  37,C  28,P  27)     -3.5795         0.026954   
    316. D(C  34,C  37,C  28,C  29)     -0.3113         0.026954   
    317. D(C  34,C  37,C  28,P  27)    177.9491         0.026954   
    318. D(C  48,C  39,P  27,C  28)   -174.7998         0.003633   
    319. D(C  48,C  39,P  27,C  26)    -72.3777         0.003633   
    320. D(C  48,C  39,P  27,Rh  1)     50.7481         0.003633   
    321. D(C  40,C  39,P  27,C  28)     16.1834         0.003633   
    322. D(C  40,C  39,P  27,C  26)    118.6055         0.003633   
    323. D(C  40,C  39,P  27,Rh  1)   -118.2687         0.003633   
    324. D(C  42,C  40,C  39,C  48)      3.6780         0.026972   
    325. D(C  42,C  40,C  39,P  27)    172.3468         0.026972   
    326. D(F  41,C  40,C  39,C  48)   -175.9132         0.026972   
    327. D(F  41,C  40,C  39,P  27)     -7.2443         0.026972   
    328. D(C  44,C  42,C  40,F  41)    178.2293         0.026380   
    329. D(C  44,C  42,C  40,C  39)     -1.3749         0.026380   
    330. D(F  43,C  42,C  40,F  41)     -1.5579         0.026380   
    331. D(F  43,C  42,C  40,C  39)    178.8379         0.026380   
    332. D(C  46,C  44,C  42,F  43)    178.6546         0.026675   
    333. D(C  46,C  44,C  42,C  40)     -1.1324         0.026675   
    334. D(F  45,C  44,C  42,F  43)     -0.5090         0.026675   
    335. D(F  45,C  44,C  42,C  40)    179.7041         0.026675   
    336. D(C  48,C  46,C  44,F  45)   -179.6908         0.025985   
    337. D(C  48,C  46,C  44,C  42)      1.1459         0.025985   
    338. D(F  47,C  46,C  44,F  45)      0.6192         0.025985   
    339. D(F  47,C  46,C  44,C  42)   -178.5440         0.025985   
    340. D(F  49,C  48,C  46,F  47)      2.3982         0.028049   
    341. D(F  49,C  48,C  46,C  44)   -177.2897         0.028049   
    342. D(C  39,C  48,C  46,F  47)   -178.9590         0.028049   
    343. D(C  39,C  48,C  46,C  44)      1.3531         0.028049   
    344. D(F  49,C  48,C  39,C  40)    174.9670         0.026221   
    345. D(F  49,C  48,C  39,P  27)      4.4449         0.026221   
    346. D(C  46,C  48,C  39,C  40)     -3.7165         0.026221   
    347. D(C  46,C  48,C  39,P  27)   -174.2386         0.026221   
    -----------------------------------------------------------------

Number of atoms                         .... 56
Number of degrees of freedom            .... 347

         *************************************************************
         *                GEOMETRY OPTIMIZATION CYCLE   1            *
         *************************************************************
---------------------------------
CARTESIAN COORDINATES (ANGSTROEM)
---------------------------------
  H      1.341560    1.411080   -1.296488
  Rh     1.941408    0.250124   -0.511630
  P      3.114799    1.628221    0.787135
  C      3.671470    3.320793    0.337320
  C      2.660156    4.277775    0.270525
  F      1.430622    3.911874    0.653179
  C      2.881713    5.577563   -0.158758
  F      1.889279    6.464722   -0.182609
  C      4.163143    5.946522   -0.565212
  F      4.403591    7.185976   -0.979618
  C      5.187738    5.005543   -0.534560
  F      6.414711    5.346406   -0.924729
  C      4.934325    3.708961   -0.093979
  F      5.949175    2.843577   -0.085517
  C      2.321542    2.048754    2.406649
  C      1.082882    1.484467    2.683501
  F      0.543170    0.652364    1.783128
  C      0.399454    1.749641    3.864753
  F     -0.772262    1.170867    4.115102
  C      0.960141    2.624305    4.793662
  F      0.323040    2.892151    5.927632
  C      2.196499    3.213257    4.532872
  F      2.737452    4.047932    5.417835
  C      2.860228    2.916275    3.347872
  F      4.052112    3.478214    3.109464
  C      4.637458    0.777828    1.416275
  C      4.282877   -0.659850    1.789518
  P      3.015750   -1.365107    0.603268
  C      2.132965   -2.512407    1.745504
  C      0.745321   -2.549502    1.669953
  F      0.130776   -1.795732    0.756983
  C     -0.013278   -3.353663    2.515769
  C      0.630944   -4.143461    3.465248
  F     -0.076222   -4.914725    4.283121
  C      2.022248   -4.126621    3.555117
  F      2.642186   -4.884163    4.458453
  F     -1.339451   -3.374208    2.423060
  C      2.752270   -3.314855    2.697211
  F      4.088285   -3.325147    2.764972
  C      3.999157   -2.571900   -0.383954
  C      3.845098   -3.948295   -0.505521
  F      2.966944   -4.611718    0.254742
  C      4.589458   -4.684249   -1.424870
  F      4.432425   -6.004282   -1.497834
  C      5.492306   -4.045000   -2.269352
  F      6.205864   -4.748346   -3.141576
  C      5.628925   -2.658122   -2.204475
  F      6.465757   -2.026596   -3.023735
  C      4.873838   -1.957160   -1.278428
  F      4.944413   -0.619373   -1.230897
  C      1.222728   -0.798248   -1.853167
  O      0.862332   -1.470195   -2.704117
  H      5.075637    1.311030    2.262532
  H      5.361553    0.779048    0.602763
  H      3.806592   -0.678389    2.776224
  H      5.179134   -1.281696    1.832046

----------------------------
CARTESIAN COORDINATES (A.U.)
----------------------------
  NO LB      ZA    FRAG     MASS         X           Y           Z
   0 H     1.0000    0     1.008    2.535182    2.666554   -2.450008
   1 Rh   17.0000*   0   102.910    3.668729    0.472666   -0.966840
   2 P    15.0000    0    30.974    5.886118    3.076892    1.487470
   3 C     6.0000    0    12.011    6.938074    6.275390    0.637443
   4 C     6.0000    0    12.011    5.026967    8.083823    0.511217
   5 F     9.0000    0    18.998    2.703483    7.392371    1.234330
   6 C     6.0000    0    12.011    5.445648   10.540067   -0.300009
   7 F     9.0000    0    18.998    3.570220   12.216553   -0.345080
   8 C     6.0000    0    12.011    7.867199   11.237297   -1.068096
   9 F     9.0000    0    18.998    8.321582   13.579526   -1.851210
  10 C     6.0000    0    12.011    9.803404    9.459106   -1.010172
  11 F     9.0000    0    18.998   12.122046   10.103242   -1.747484
  12 C     6.0000    0    12.011    9.324524    7.008920   -0.177594
  13 F     9.0000    0    18.998   11.242312    5.373582   -0.161604
  14 C     6.0000    0    12.011    4.387079    3.871583    4.547908
  15 C     6.0000    0    12.011    2.046350    2.805237    5.071082
  16 F     9.0000    0    18.998    1.026443    1.232790    3.369623
  17 C     6.0000    0    12.011    0.754858    3.306343    7.303324
  18 F     9.0000    0    18.998   -1.459365    2.212619    7.776415
  19 C     6.0000    0    12.011    1.814403    4.959219    9.058708
  20 F     9.0000    0    18.998    0.610457    5.465373   11.201601
  21 C     6.0000    0    12.011    4.150781    6.072175    8.565887
  22 F     9.0000    0    18.998    5.173035    7.649483   10.238225
  23 C     6.0000    0    12.011    5.405048    5.510961    6.326561
  24 F     9.0000    0    18.998    7.657381    6.572872    5.876035
  25 C     6.0000    0    12.011    8.763525    1.469882    2.676372
  26 C     6.0000    0    12.011    8.093464   -1.246936    3.381699
  27 P    15.0000    0    30.974    5.698941   -2.579679    1.140011
  28 C     6.0000    0    12.011    4.030720   -4.747760    3.298525
  29 C     6.0000    0    12.011    1.408453   -4.817861    3.155754
  30 F     9.0000    0    18.998    0.247132   -3.393441    1.430491
  31 C     6.0000    0    12.011   -0.025091   -6.337506    4.754115
  32 C     6.0000    0    12.011    1.192312   -7.830007    6.548369
  33 F     9.0000    0    18.998   -0.144038   -9.287484    8.093925
  34 C     6.0000    0    12.011    3.821496   -7.798184    6.718197
  35 F     9.0000    0    18.998    4.993007   -9.229730    8.425255
  36 F     9.0000    0    18.998   -2.531195   -6.376329    4.578920
  37 C     6.0000    0    12.011    5.201036   -6.264168    5.096990
  38 F     9.0000    0    18.998    7.725740   -6.283617    5.225039
  39 C     6.0000    0    12.011    7.557311   -4.860187   -0.725567
  40 C     6.0000    0    12.011    7.266182   -7.461197   -0.955296
  41 F     9.0000    0    18.998    5.606712   -8.714884    0.481392
  42 C     6.0000    0    12.011    8.672818   -8.851947   -2.692614
  43 F     9.0000    0    18.998    8.376069  -11.346448   -2.830496
  44 C     6.0000    0    12.011   10.378954   -7.643942   -4.288454
  45 F     9.0000    0    18.998   11.727384   -8.973073   -5.936718
  46 C     6.0000    0    12.011   10.637127   -5.023123   -4.165854
  47 F     9.0000    0    18.998   12.218510   -3.829711   -5.714031
  48 C     6.0000    0    12.011    9.210219   -3.698497   -2.415880
  49 F     9.0000    0    18.998    9.343587   -1.170445   -2.326058
  50 C     6.0000    0    12.011    2.310622   -1.508469   -3.501978
  51 O     8.0000    0    15.999    1.629571   -2.778266   -5.110041
  52 H     1.0000    0     1.008    9.591565    2.477489    4.275565
  53 H     1.0000    0     1.008   10.131867    1.472188    1.139056
  54 H     1.0000    0     1.008    7.193416   -1.281970    5.246304
  55 H     1.0000    0     1.008    9.787145   -2.422054    3.462064
* core charge reduced due to ECP

--------------------------------
INTERNAL COORDINATES (ANGSTROEM)
--------------------------------
 H      0   0   0     0.000000000000     0.00000000     0.00000000
 Rh     1   0   0     1.524348672208     0.00000000     0.00000000
 P      2   1   0     2.227731936563    92.08069559     0.00000000
 C      3   2   1     1.837666206448   125.91747059   334.35430050
 C      4   3   2     1.393926669393   115.10541325    71.36986975
 F      5   4   3     1.338679379414   117.71113443     6.02468000
 C      5   4   3     1.386658515242   122.84996006   185.38457009
 F      7   5   4     1.331369092156   120.73375836   181.24351033
 C      7   5   4     1.394057775802   119.02657323     1.14761107
 F      9   7   5     1.328831930126   120.27279666   180.08252551
 C      9   7   5     1.391465388181   119.43593338     0.14901862
 F     11   9   7     1.331871261033   119.92221928   179.78775976
 C      4   3   2     1.389782445383   127.47881641   259.82545544
 F     13   4   3     1.333746781424   120.54530504   352.69304100
 C      3   2   1     1.851737271547   115.13382619    95.92261073
 C     15   3   2     1.389008924051   117.65043957     0.06195586
 F     16  15   3     1.339535799346   118.53433560     1.24781046
 C     16  15   3     1.390232635022   122.02221466   180.72064639
 F     18  16  15     1.330628615720   120.64917689   181.50023246
 C     18  16  15     1.393657049115   119.22684244     1.03731968
 F     20  18  16     1.327978483474   120.18041726   179.93196136
 C     20  18  16     1.394078609858   119.81835321   359.60127281
 F     22  20  18     1.331342672441   120.05732587   180.10219264
 C     15   3   2     1.388767430826   124.64176757   181.89246038
 F     24  15   3     1.339104431873   119.12503118   358.26552666
 C      3   2   1     1.854042697277   110.28378123   207.07647865
 C     26   3   2     1.527074401733   108.90882672   319.47875538
 P     27  26   3     1.873549310024   110.89631791    36.19770784
 C     28  27  26     1.843992561986    99.54296124   211.06269816
 C     29  28  27     1.390193906633   117.43845494   137.29307963
 F     30  29  28     1.333922204509   118.81463130     2.13944375
 C     30  29  28     1.391960194960   121.76112157   181.88419232
 C     32  30  29     1.392950411508   119.32113741     0.03427735
 F     33  32  30     1.328099498588   120.18379821   179.83792082
 C     33  32  30     1.394305122086   119.90597946   359.68660142
 F     35  33  32     1.331993606053   120.08351863   180.24652035
 F     32  30  29     1.329568294508   120.67388357   180.12034318
 C     35  33  32     1.388488017306   119.46369505     0.27734187
 F     38  35  33     1.337772233998   119.29342674   181.57434750
 C     28  27  26     1.843378586452   102.98612681   108.00725793
 C     40  28  27     1.390315132288   129.48101865   118.60550377
 F     41  40  28     1.337640736158   120.93382356   352.75565285
 C     41  40  28     1.393162567917   121.43079319   172.34684752
 F     43  41  40     1.331341375560   119.79636338   178.83790795
 C     43  41  40     1.391734449724   120.29060853   358.62513239
 F     45  43  41     1.328395773272   120.24406365   179.70406273
 C     45  43  41     1.395099325796   119.46696315   358.86764506
 F     47  45  43     1.330526281515   120.31835377   181.45597973
 C     47  45  43     1.385304155753   118.73282122     1.14591134
 F     49  47  45     1.340490327934   119.99896224   182.71027214
 C      2   1   3     1.848054360870    84.56339655   191.30863053
 O     51   2   1     1.142592037817   175.49293372   116.38449028
 H     26   3   2     1.091996514181   111.62654355   196.17417134
 H     26   3   2     1.089090648614   106.98027961    78.04467543
 H     27  26   3     1.095801371581   109.69019922   279.88008649
 H     27  26   3     1.091685671996   110.80356915   160.50070369

---------------------------
INTERNAL COORDINATES (A.U.)
---------------------------
 H      0   0   0     0.000000000000     0.00000000     0.00000000
 Rh     1   0   0     2.880601523079     0.00000000     0.00000000
 P      2   1   0     4.209803259895    92.08069559     0.00000000
 C      3   2   1     3.472685855748   125.91747059   334.35430050
 C      4   3   2     2.634139655922   115.10541325    71.36986975
 F      5   4   3     2.529737408219   117.71113443     6.02468000
 C      5   4   3     2.620404835077   122.84996006   185.38457009
 F      7   5   4     2.515922967342   120.73375836   181.24351033
 C      7   5   4     2.634387411130   119.02657323     1.14761107
 F      9   7   5     2.511128425948   120.27279666   180.08252551
 C      9   7   5     2.629488508493   119.43593338     0.14901862
 F     11   9   7     2.516871928992   119.92221928   179.78775976
 C      4   3   2     2.626308207506   127.47881641   259.82545544
 F     13   4   3     2.520416148891   120.54530504   352.69304100
 C      3   2   1     3.499276315199   115.13382619    95.92261073
 C     15   3   2     2.624846464029   117.65043957     0.06195586
 F     16  15   3     2.531355807348   118.53433560     1.24781046
 C     16  15   3     2.627158942631   122.02221466   180.72064639
 F     18  16  15     2.514523669670   120.64917689   181.50023246
 C     18  16  15     2.633630147437   119.22684244     1.03731968
 F     20  18  16     2.509515645505   120.18041726   179.93196136
 C     20  18  16     2.634426781789   119.81835321   359.60127281
 F     22  20  18     2.515873041316   120.05732587   180.10219264
 C     15   3   2     2.624390107970   124.64176757   181.89246038
 F     24  15   3     2.530540640960   119.12503118   358.26552666
 C      3   2   1     3.503632938451   110.28378123   207.07647865
 C     26   3   2     2.885752405396   108.90882672   319.47875538
 P     27  26   3     3.540495094343   110.89631791    36.19770784
 C     28  27  26     3.484640935140    99.54296124   211.06269816
 C     29  28  27     2.627085756583   117.43845494   137.29307963
 F     30  29  28     2.520747650479   118.81463130     2.13944375
 C     30  29  28     2.630423557795   121.76112157   181.88419232
 C     32  30  29     2.632294795883   119.32113741     0.03427735
 F     33  32  30     2.509744330930   120.18379821   179.83792082
 C     33  32  30     2.634854827867   119.90597946   359.68660142
 F     35  33  32     2.517103127575   120.08351863   180.24652035
 F     32  30  29     2.512519952964   120.67388357   180.12034318
 C     35  33  32     2.623862092940   119.46369505     0.27734187
 F     38  35  33     2.528023151820   119.29342674   181.57434750
 C     28  27  26     3.483480689529   102.98612681   108.00725793
 C     40  28  27     2.627314839870   129.48101865   118.60550377
 F     41  40  28     2.527774656915   120.93382356   352.75565285
 C     41  40  28     2.632695713394   121.43079319   172.34684752
 F     43  41  40     2.515870590566   119.79636338   178.83790795
 C     43  41  40     2.629996961122   120.29060853   358.62513239
 F     45  43  41     2.510304208942   120.24406365   179.70406273
 C     45  43  41     2.636355655373   119.46696315   358.86764506
 F     47  45  43     2.514330286048   120.31835377   181.45597973
 C     47  45  43     2.617845466555   118.73282122     1.14591134
 F     49  47  45     2.533159604965   119.99896224   182.71027214
 C      2   1   3     3.492316622643    84.56339655   191.30863053
 O     51   2   1     2.159186034273   175.49293372   116.38449028
 H     26   3   2     2.063574350998   111.62654355   196.17417134
 H     26   3   2     2.058083060895   106.98027961    78.04467543
 H     27  26   3     2.070764489464   109.69019922   279.88008649
 H     27  26   3     2.062986944398   110.80356915   160.50070369

---------------------
BASIS SET INFORMATION
---------------------
There are 6 groups of distinct atoms

 Group   1 Type H   : 4s1p contracted to 2s1p pattern {31/1}
 Group   2 Type Rh  : 7s7p6d1f contracted to 6s4p3d1f pattern {211111/4111/411/1}
 Group   3 Type P   : 10s7p1d contracted to 4s3p1d pattern {5311/511/1}
 Group   4 Type C   : 7s4p1d contracted to 3s2p1d pattern {511/31/1}
 Group   5 Type F   : 7s4p1d contracted to 3s2p1d pattern {511/31/1}
 Group   6 Type O   : 7s4p1d contracted to 3s2p1d pattern {511/31/1}

Atom   0H    basis set group =>   1
Atom   1Rh   basis set group =>   2
Atom   2P    basis set group =>   3
Atom   3C    basis set group =>   4
Atom   4C    basis set group =>   4
Atom   5F    basis set group =>   5
Atom   6C    basis set group =>   4
Atom   7F    basis set group =>   5
Atom   8C    basis set group =>   4
Atom   9F    basis set group =>   5
Atom  10C    basis set group =>   4
Atom  11F    basis set group =>   5
Atom  12C    basis set group =>   4
Atom  13F    basis set group =>   5
Atom  14C    basis set group =>   4
Atom  15C    basis set group =>   4
Atom  16F    basis set group =>   5
Atom  17C    basis set group =>   4
Atom  18F    basis set group =>   5
Atom  19C    basis set group =>   4
Atom  20F    basis set group =>   5
Atom  21C    basis set group =>   4
Atom  22F    basis set group =>   5
Atom  23C    basis set group =>   4
Atom  24F    basis set group =>   5
Atom  25C    basis set group =>   4
Atom  26C    basis set group =>   4
Atom  27P    basis set group =>   3
Atom  28C    basis set group =>   4
Atom  29C    basis set group =>   4
Atom  30F    basis set group =>   5
Atom  31C    basis set group =>   4
Atom  32C    basis set group =>   4
Atom  33F    basis set group =>   5
Atom  34C    basis set group =>   4
Atom  35F    basis set group =>   5
Atom  36F    basis set group =>   5
Atom  37C    basis set group =>   4
Atom  38F    basis set group =>   5
Atom  39C    basis set group =>   4
Atom  40C    basis set group =>   4
Atom  41F    basis set group =>   5
Atom  42C    basis set group =>   4
Atom  43F    basis set group =>   5
Atom  44C    basis set group =>   4
Atom  45F    basis set group =>   5
Atom  46C    basis set group =>   4
Atom  47F    basis set group =>   5
Atom  48C    basis set group =>   4
Atom  49F    basis set group =>   5
Atom  50C    basis set group =>   4
Atom  51O    basis set group =>   6
Atom  52H    basis set group =>   1
Atom  53H    basis set group =>   1
Atom  54H    basis set group =>   1
Atom  55H    basis set group =>   1
---------------------------------
AUXILIARY/J BASIS SET INFORMATION
---------------------------------
There are 6 groups of distinct atoms

 Group   1 Type H   : 5s2p1d contracted to 3s1p1d pattern {311/2/1}
 Group   2 Type Rh  : 11s5p5d3f3g contracted to 8s5p5d2f3g pattern {41111111/11111/11111/21/111}
 Group   3 Type P   : 14s5p5d2f1g contracted to 8s4p3d1f1g pattern {71111111/2111/311/2/1}
 Group   4 Type C   : 12s5p4d2f1g contracted to 6s4p3d1f1g pattern {711111/2111/211/2/1}
 Group   5 Type F   : 12s5p4d2f1g contracted to 6s4p3d1f1g pattern {711111/2111/211/2/1}
 Group   6 Type O   : 12s5p4d2f1g contracted to 6s4p3d1f1g pattern {711111/2111/211/2/1}

Atom   0H    basis set group =>   1
Atom   1Rh   basis set group =>   2
Atom   2P    basis set group =>   3
Atom   3C    basis set group =>   4
Atom   4C    basis set group =>   4
Atom   5F    basis set group =>   5
Atom   6C    basis set group =>   4
Atom   7F    basis set group =>   5
Atom   8C    basis set group =>   4
Atom   9F    basis set group =>   5
Atom  10C    basis set group =>   4
Atom  11F    basis set group =>   5
Atom  12C    basis set group =>   4
Atom  13F    basis set group =>   5
Atom  14C    basis set group =>   4
Atom  15C    basis set group =>   4
Atom  16F    basis set group =>   5
Atom  17C    basis set group =>   4
Atom  18F    basis set group =>   5
Atom  19C    basis set group =>   4
Atom  20F    basis set group =>   5
Atom  21C    basis set group =>   4
Atom  22F    basis set group =>   5
Atom  23C    basis set group =>   4
Atom  24F    basis set group =>   5
Atom  25C    basis set group =>   4
Atom  26C    basis set group =>   4
Atom  27P    basis set group =>   3
Atom  28C    basis set group =>   4
Atom  29C    basis set group =>   4
Atom  30F    basis set group =>   5
Atom  31C    basis set group =>   4
Atom  32C    basis set group =>   4
Atom  33F    basis set group =>   5
Atom  34C    basis set group =>   4
Atom  35F    basis set group =>   5
Atom  36F    basis set group =>   5
Atom  37C    basis set group =>   4
Atom  38F    basis set group =>   5
Atom  39C    basis set group =>   4
Atom  40C    basis set group =>   4
Atom  41F    basis set group =>   5
Atom  42C    basis set group =>   4
Atom  43F    basis set group =>   5
Atom  44C    basis set group =>   4
Atom  45F    basis set group =>   5
Atom  46C    basis set group =>   4
Atom  47F    basis set group =>   5
Atom  48C    basis set group =>   4
Atom  49F    basis set group =>   5
Atom  50C    basis set group =>   4
Atom  51O    basis set group =>   6
Atom  52H    basis set group =>   1
Atom  53H    basis set group =>   1
Atom  54H    basis set group =>   1
Atom  55H    basis set group =>   1
-------------------------
ECP PARAMETER INFORMATION
-------------------------

 Group 1, Type Rh ECP Def2-ECP (replacing 28 core electrons, lmax=3)

Atom   1Rh   ECP group =>   1

--------------------------------------------------------------------------
WARNING: No preset parameters were found for the device that Open MPI
detected:

  Local host:            eu-g9-015-3
  Device name:           mlx5_0
  Device vendor ID:      0x02c9
  Device vendor part ID: 4123

Default device parameters will be used, which may result in lower
performance.  You can edit any of the files specified by the
btl_openib_device_param_files MCA parameter to set values for your
device.

NOTE: You can turn off this warning by setting the MCA parameter
      btl_openib_warn_no_device_params_found to 0.
--------------------------------------------------------------------------
--------------------------------------------------------------------------
WARNING: There is at least non-excluded one OpenFabrics device found,
but there are no active ports detected (or Open MPI was unable to use
them).  This is most certainly not what you wanted.  Check your
cables, subnet manager configuration, etc.  The openib BTL will be
ignored for this job.

  Local host: eu-g9-015-3
--------------------------------------------------------------------------


           ************************************************************
           *        Program running with 10 parallel MPI-processes    *
           *              working on a common directory               *
           ************************************************************
------------------------------------------------------------------------------
                           ORCA GTO INTEGRAL CALCULATION
                           -- RI-GTO INTEGRALS CHOSEN --
------------------------------------------------------------------------------

                         BASIS SET STATISTICS AND STARTUP INFO

Gaussian basis set:
 # of primitive gaussian shells          ...  658
 # of primitive gaussian functions       ... 1324
 # of contracted shells                  ...  333
 # of contracted basis functions         ...  773
 Highest angular momentum                ...    3
 Maximum contraction depth               ...    5
Auxiliary gaussian basis set:
 # of primitive gaussian shells          ... 1273
 # of primitive gaussian functions       ... 3693
 # of contracted shells                  ...  802
 # of contracted aux-basis functions     ... 2598
 Highest angular momentum                ...    4
 Maximum contraction depth               ...    7
Ratio of auxiliary to basis functions    ...  3.36
Integral package used                  ... LIBINT
 One Electron integrals                  
   ECP integrals                         ... done
 Ordering auxiliary basis shells         ... done
 Integral threshhold             Thresh  ...  2.500e-11
 Primitive cut-off               TCut    ...  2.500e-12
 Pre-screening matrix                    ... done
 Shell pair data                         ... 
 Ordering of the shell pairs             ... done (   0.005 sec) 29701 of 55611 pairs
 Determination of significant pairs      ... done (   0.000 sec)
 Creation of shell pair data             ... done (   0.003 sec)
 Storage of shell pair data              ... done (   0.010 sec)
 Shell pair data done in (   0.018 sec)
 Computing two index integrals           ... done
 Cholesky decomposition of the V-matrix  ... done


Timings:
 Total evaluation time                   ...   1.363 sec (  0.023 min)
 One electron matrix time                ...   0.632 sec (  0.011 min) = 46.4%
 Schwartz matrix evaluation time         ...   0.258 sec (  0.004 min) = 18.9%
 Two index repulsion integral time       ...   0.126 sec (  0.002 min) =  9.2%
 Cholesky decomposition of V             ...   0.299 sec (  0.005 min) = 21.9%
 Three index repulsion integral time     ...   0.000 sec (  0.000 min) =  0.0%

--------------------------------------------------------------------------
WARNING: No preset parameters were found for the device that Open MPI
detected:

  Local host:            eu-g9-015-3
  Device name:           mlx5_0
  Device vendor ID:      0x02c9
  Device vendor part ID: 4123

Default device parameters will be used, which may result in lower
performance.  You can edit any of the files specified by the
btl_openib_device_param_files MCA parameter to set values for your
device.

NOTE: You can turn off this warning by setting the MCA parameter
      btl_openib_warn_no_device_params_found to 0.
--------------------------------------------------------------------------
--------------------------------------------------------------------------
WARNING: There is at least non-excluded one OpenFabrics device found,
but there are no active ports detected (or Open MPI was unable to use
them).  This is most certainly not what you wanted.  Check your
cables, subnet manager configuration, etc.  The openib BTL will be
ignored for this job.

  Local host: eu-g9-015-3
--------------------------------------------------------------------------


           ************************************************************
           *        Program running with 10 parallel MPI-processes    *
           *              working on a common directory               *
           ************************************************************
-------------------------------------------------------------------------------
                                 ORCA SCF
-------------------------------------------------------------------------------

------------
SCF SETTINGS
------------
Hamiltonian:
 Density Functional     Method          .... DFT(GTOs)
 Exchange Functional    Exchange        .... PBE
   PBE kappa parameter   XKappa         ....  0.804000
   PBE mue parameter    XMuePBE         ....  0.219520
 Correlation Functional Correlation     .... PBE
   PBE beta parameter  CBetaPBE         ....  0.066725
 LDA part of GGA corr.  LDAOpt          .... PW91-LDA
 Gradients option       PostSCFGGA      .... off
 Hybrid DFT is turned on
   Fraction HF Exchange ScalHFX         ....  0.250000
   Scaling of DF-GGA-X  ScalDFX         ....  0.750000
   Scaling of DF-GGA-C  ScalDFC         ....  1.000000
   Scaling of DF-LDA-C  ScalLDAC        ....  1.000000
   Perturbative correction              ....  0.000000
   Density functional embedding theory  .... OFF
   NL short-range parameter             ....  6.900000
 RI-approximation to the Coulomb term is turned on
   Number of auxiliary basis functions  .... 2598
   RIJ-ON(X) (HFX calculated with O(N)) .... on


General Settings:
 Integral files         IntName         .... TEP_Rh
 Hartree-Fock type      HFTyp           .... RHF
 Total Charge           Charge          ....    0
 Multiplicity           Mult            ....    1
 Number of Electrons    NEL             ....  402
 Basis Dimension        Dim             ....  773
 Nuclear Repulsion      ENuc            ....   8679.9123080748 Eh

Convergence Acceleration:
 DIIS                   CNVDIIS         .... on
   Start iteration      DIISMaxIt       ....    12
   Startup error        DIISStart       ....  0.200000
   # of expansion vecs  DIISMaxEq       ....     5
   Bias factor          DIISBfac        ....   1.050
   Max. coefficient     DIISMaxC        ....  10.000
 Newton-Raphson         CNVNR           .... off
 SOSCF                  CNVSOSCF        .... off
 Level Shifting         CNVShift        .... on
   Level shift para.    LevelShift      ....    0.2500
   Turn off err/grad.   ShiftErr        ....    0.0010
 Zerner damping         CNVZerner       .... off
 Static damping         CNVDamp         .... on
   Fraction old density DampFac         ....    0.7000
   Max. Damping (<1)    DampMax         ....    0.9800
   Min. Damping (>=0)   DampMin         ....    0.0000
   Turn off err/grad.   DampErr         ....    0.1000
 Fernandez-Rico         CNVRico         .... off

SCF Procedure:
 Maximum # iterations   MaxIter         ....   125
 SCF integral mode      SCFMode         .... Direct
   Integral package                     .... LIBINT
 Reset frequency        DirectResetFreq ....    20
 Integral Threshold     Thresh          ....  2.500e-11 Eh
 Primitive CutOff       TCut            ....  2.500e-12 Eh

Convergence Tolerance:
 Convergence Check Mode ConvCheckMode   .... Total+1el-Energy
 Convergence forced     ConvForced      .... 0
 Energy Change          TolE            ....  1.000e-08 Eh
 1-El. energy change                    ....  1.000e-05 Eh
 DIIS Error             TolErr          ....  5.000e-07


Diagonalization of the overlap matrix:
Smallest eigenvalue                        ... 1.138e-04
Time for diagonalization                   ...    0.218 sec
Threshold for overlap eigenvalues          ... 1.000e-08
Number of eigenvalues below threshold      ... 0
Time for construction of square roots      ...    0.070 sec
Total time needed                          ...    0.290 sec

-------------------
DFT GRID GENERATION
-------------------

General Integration Accuracy     IntAcc      ...  4.340
Radial Grid Type                 RadialGrid  ... Gauss-Chebyshev
Angular Grid (max. acc.)         AngularGrid ... Lebedev-110
Angular grid pruning method      GridPruning ... 3 (G Style)
Weight generation scheme         WeightScheme... Becke
Basis function cutoff            BFCut       ...    1.0000e-11
Integration weight cutoff        WCut        ...    1.0000e-14
Grids for H and He will be reduced by one unit

# of grid points (after initial pruning)     ...  92090 (   0.0 sec)
# of grid points (after weights+screening)   ...  81107 (   0.1 sec)
nearest neighbour list constructed           ...    0.0 sec
Grid point re-assignment to atoms done       ...    0.0 sec
Grid point division into batches done        ...    0.1 sec
Reduced shell lists constructed in    0.2 sec

Total number of grid points                  ...    81107
Total number of batches                      ...     1296
Average number of points per batch           ...       62
Average number of grid points per atom       ...     1448
Average number of shells per batch           ...   129.35 (38.84%)
Average number of basis functions per batch  ...   289.93 (37.51%)
Average number of large shells per batch     ...    80.98 (62.60%)
Average number of large basis fcns per batch ...   182.24 (62.86%)
Maximum spatial batch extension              ...  24.02, 17.65, 18.61 au
Average spatial batch extension              ...   0.27,  0.25,  0.29 au

Time for grid setup =    0.346 sec

------------------------------
INITIAL GUESS: MODEL POTENTIAL
------------------------------
Loading Hartree-Fock densities                     ... done
  calling /cluster/apps/orca/4.2.0/x86_64/bin/orca TEP_Rh_atom45.inp > TEP_Rh_atom45.out in order to generate an atomic fitting density for atom 1 (Rh with ECP) on-the-fly... 
    atom 1 (Rh), assumed electronic state with S=4: 1s2 2s2 2p6 3s2 3p6 4s2 3d10 4p6 5s2 4d7           ... done
Calculating cut-offs                               ... done
Setting up the integral package                    ... done
Initializing the effective Hamiltonian             ... done
Starting the Coulomb interaction                   ... done (   0.2 sec)
Reading the grid                                   ... done
Mapping shells                                     ... done
Starting the XC term evaluation                    ... done (   0.1 sec)
  promolecular density results
     # of electrons  =    429.998302784
     EX              =   -526.666654398
     EC              =    -15.944207459
     EX+EC           =   -542.610861857
Transforming the Hamiltonian                       ... done (   0.2 sec)
Diagonalizing the Hamiltonian                      ... done (   0.2 sec)
Back transforming the eigenvectors                 ... done (   0.0 sec)
Now organizing SCF variables                       ... done
                      ------------------
                      INITIAL GUESS DONE (   9.3 sec)
                      ------------------
--------------
SCF ITERATIONS
--------------
ITER       Energy         Delta-E        Max-DP      RMS-DP      [F,P]     Damp
               ***  Starting incremental Fock matrix formation  ***
  0  -3890.7140559831   0.000000000000 0.15646781  0.00096762  0.4508359 0.7000
  1  -3890.9261387254  -0.212082742266 0.08350870  0.00060617  0.2869070 0.7000
                               ***Turning on DIIS***
  2  -3891.0071247771  -0.080986051691 0.02602639  0.00030966  0.1908217 0.7000
  3  -3891.0614483386  -0.054323561550 0.02537241  0.00017553  0.1364206 0.7000
  4  -3891.0989061970  -0.037457858411 0.08258555  0.00040831  0.0965029 0.0000
  5  -3891.1842611821  -0.085354985136 0.00935073  0.00007883  0.0083892 0.0000
  6  -3891.1843869358  -0.000125753651 0.00859082  0.00003373  0.0109711 0.0000
  7  -3891.1846233174  -0.000236381593 0.00202723  0.00001352  0.0013766 0.0000
  8  -3891.1846435287  -0.000020211288 0.00119614  0.00000952  0.0009503 0.0000
  9  -3891.1846461750  -0.000002646357 0.00058733  0.00000303  0.0007105 0.0000
 10  -3891.1846472248  -0.000001049719 0.00019054  0.00000116  0.0003080 0.0000
 11  -3891.1846473851  -0.000000160355 0.00004476  0.00000066  0.0000564 0.0000
 12  -3891.1846474107  -0.000000025633 0.00002432  0.00000029  0.0000155 0.0000
 13  -3891.1846474247  -0.000000013970 0.00001038  0.00000009  0.0000071 0.0000
 14  -3891.1846474264  -0.000000001655 0.00000552  0.00000004  0.0000029 0.0000
 15  -3891.1846473995   0.000000026886 0.00000337  0.00000002  0.0000035 0.0000
 16  -3891.1846473578   0.000000041717 0.00000140  0.00000001  0.0000018 0.0000
                            ***DIIS convergence achieved***

               *****************************************************
               *                     SUCCESS                       *
               *           SCF CONVERGED AFTER  17 CYCLES          *
               *****************************************************

Setting up the final grid:

General Integration Accuracy     IntAcc      ...  4.670
Radial Grid Type                 RadialGrid  ... Gauss-Chebyshev
Angular Grid (max. acc.)         AngularGrid ... Lebedev-302
Angular grid pruning method      GridPruning ... 3 (G Style)
Weight generation scheme         WeightScheme... Becke
Basis function cutoff            BFCut       ...    1.0000e-11
Integration weight cutoff        WCut        ...    1.0000e-14
Grids for H and He will be reduced by one unit

# of grid points (after initial pruning)     ... 340636 (   0.0 sec)
# of grid points (after weights+screening)   ... 292352 (   0.4 sec)
nearest neighbour list constructed           ...    0.0 sec
Grid point re-assignment to atoms done       ...    0.0 sec
Grid point division into batches done        ...    1.1 sec
Reduced shell lists constructed in    1.4 sec

Total number of grid points                  ...   292352
Total number of batches                      ...     4594
Average number of points per batch           ...       63
Average number of grid points per atom       ...     5221
Average number of shells per batch           ...   118.10 (35.46%)
Average number of basis functions per batch  ...   262.63 (33.98%)
Average number of large shells per batch     ...    73.50 (62.23%)
Average number of large basis fcns per batch ...   164.57 (62.66%)
Maximum spatial batch extension              ...  25.26, 16.99, 21.86 au
Average spatial batch extension              ...   0.17,  0.16,  0.17 au

Final grid set up in    1.9 sec
Final integration                            ... done (   0.7 sec)
Change in XC energy                          ...     0.002743317
Integrated number of electrons               ...   401.999814195
Previous integrated no of electrons          ...   402.009967878

----------------
TOTAL SCF ENERGY
----------------

Total Energy       :        -3891.18190401 Eh         -105884.44267 eV

Components:
Nuclear Repulsion  :         8679.91230807 Eh          236192.42169 eV
Electronic Energy  :       -12571.09421208 Eh         -342076.86436 eV
One Electron Energy:       -22728.78547520 Eh         -618481.69578 eV
Two Electron Energy:        10157.69126312 Eh          276404.83142 eV

Virial components:
Potential Energy   :        -7690.62711259 Eh         -209272.60295 eV
Kinetic Energy     :         3799.44520858 Eh          103388.16028 eV
Virial Ratio       :            2.02414476


DFT components:
N(Alpha)           :      200.999907097313 electrons
N(Beta)            :      200.999907097313 electrons
N(Total)           :      401.999814194626 electrons
E(X)               :     -304.746309321340 Eh       
E(C)               :      -14.298347419806 Eh       
E(XC)              :     -319.044656741146 Eh       
DFET-embed. en.    :        0.000000000000 Eh       

---------------
SCF CONVERGENCE
---------------

  Last Energy change         ...    3.5279e-08  Tolerance :   1.0000e-08
  Last MAX-Density change    ...    6.3849e-07  Tolerance :   1.0000e-07
  Last RMS-Density change    ...    7.1846e-09  Tolerance :   5.0000e-09
  Last DIIS Error            ...    8.6622e-07  Tolerance :   5.0000e-07

             **** THE GBW FILE WAS UPDATED (TEP_Rh.gbw) ****
             **** DENSITY FILE WAS UPDATED (TEP_Rh.scfp) ****
             **** ENERGY FILE WAS UPDATED (TEP_Rh.en.tmp) ****
             **** THE GBW FILE WAS UPDATED (TEP_Rh.gbw) ****
             **** DENSITY FILE WAS UPDATED (TEP_Rh.scfp) ****
----------------
ORBITAL ENERGIES
----------------

  NO   OCC          E(Eh)            E(eV) 
   0   2.0000     -77.284933     -2103.0300 
   1   2.0000     -77.284675     -2103.0229 
   2   2.0000     -24.839509      -675.9174 
   3   2.0000     -24.838734      -675.8963 
   4   2.0000     -24.837323      -675.8579 
   5   2.0000     -24.836723      -675.8416 
   6   2.0000     -24.836226      -675.8281 
   7   2.0000     -24.835196      -675.8000 
   8   2.0000     -24.834659      -675.7854 
   9   2.0000     -24.834207      -675.7731 
  10   2.0000     -24.833564      -675.7556 
  11   2.0000     -24.832977      -675.7397 
  12   2.0000     -24.832972      -675.7395 
  13   2.0000     -24.831901      -675.7104 
  14   2.0000     -24.831264      -675.6931 
  15   2.0000     -24.830479      -675.6717 
  16   2.0000     -24.830323      -675.6674 
  17   2.0000     -24.828975      -675.6308 
  18   2.0000     -24.827858      -675.6004 
  19   2.0000     -24.827403      -675.5880 
  20   2.0000     -24.827251      -675.5838 
  21   2.0000     -24.826533      -675.5643 
  22   2.0000     -19.283150      -524.7212 
  23   2.0000     -10.381658      -282.4993 
  24   2.0000     -10.379164      -282.4314 
  25   2.0000     -10.377935      -282.3980 
  26   2.0000     -10.377023      -282.3732 
  27   2.0000     -10.376995      -282.3724 
  28   2.0000     -10.376870      -282.3690 
  29   2.0000     -10.375474      -282.3310 
  30   2.0000     -10.375052      -282.3195 
  31   2.0000     -10.374322      -282.2997 
  32   2.0000     -10.373908      -282.2884 
  33   2.0000     -10.373617      -282.2805 
  34   2.0000     -10.373593      -282.2798 
  35   2.0000     -10.373508      -282.2775 
  36   2.0000     -10.371302      -282.2175 
  37   2.0000     -10.370844      -282.2050 
  38   2.0000     -10.370432      -282.1938 
  39   2.0000     -10.370322      -282.1908 
  40   2.0000     -10.369262      -282.1620 
  41   2.0000     -10.367507      -282.1142 
  42   2.0000     -10.367039      -282.1015 
  43   2.0000     -10.345870      -281.5254 
  44   2.0000     -10.302591      -280.3477 
  45   2.0000     -10.301787      -280.3259 
  46   2.0000     -10.300396      -280.2880 
  47   2.0000     -10.298482      -280.2359 
  48   2.0000     -10.283811      -279.8367 
  49   2.0000     -10.277354      -279.6610 
  50   2.0000      -6.687631      -181.9797 
  51   2.0000      -6.687112      -181.9656 
  52   2.0000      -4.828067      -131.3784 
  53   2.0000      -4.827575      -131.3650 
  54   2.0000      -4.827547      -131.3642 
  55   2.0000      -4.826808      -131.3441 
  56   2.0000      -4.825186      -131.3000 
  57   2.0000      -4.824845      -131.2907 
  58   2.0000      -3.260714       -88.7285 
  59   2.0000      -2.028460       -55.1972 
  60   2.0000      -2.016855       -54.8814 
  61   2.0000      -1.981966       -53.9320 
  62   2.0000      -1.305572       -35.5264 
  63   2.0000      -1.302115       -35.4324 
  64   2.0000      -1.301715       -35.4215 
  65   2.0000      -1.299178       -35.3524 
  66   2.0000      -1.298515       -35.3344 
  67   2.0000      -1.296254       -35.2729 
  68   2.0000      -1.295142       -35.2426 
  69   2.0000      -1.293845       -35.2073 
  70   2.0000      -1.293490       -35.1977 
  71   2.0000      -1.291225       -35.1360 
  72   2.0000      -1.288972       -35.0747 
  73   2.0000      -1.288528       -35.0626 
  74   2.0000      -1.284174       -34.9442 
  75   2.0000      -1.281178       -34.8626 
  76   2.0000      -1.280282       -34.8382 
  77   2.0000      -1.279707       -34.8226 
  78   2.0000      -1.278152       -34.7803 
  79   2.0000      -1.276244       -34.7284 
  80   2.0000      -1.275254       -34.7014 
  81   2.0000      -1.273523       -34.6543 
  82   2.0000      -1.147221       -31.2175 
  83   2.0000      -0.952304       -25.9135 
  84   2.0000      -0.949492       -25.8370 
  85   2.0000      -0.946968       -25.7683 
  86   2.0000      -0.945367       -25.7247 
  87   2.0000      -0.868433       -23.6313 
  88   2.0000      -0.850059       -23.1313 
  89   2.0000      -0.827275       -22.5113 
  90   2.0000      -0.826979       -22.5032 
  91   2.0000      -0.824755       -22.4427 
  92   2.0000      -0.823899       -22.4194 
  93   2.0000      -0.820230       -22.3196 
  94   2.0000      -0.819247       -22.2928 
  95   2.0000      -0.816803       -22.2263 
  96   2.0000      -0.754166       -20.5219 
  97   2.0000      -0.734675       -19.9915 
  98   2.0000      -0.712776       -19.3956 
  99   2.0000      -0.711350       -19.3568 
 100   2.0000      -0.707864       -19.2620 
 101   2.0000      -0.704641       -19.1743 
 102   2.0000      -0.703938       -19.1551 
 103   2.0000      -0.701969       -19.1015 
 104   2.0000      -0.690821       -18.7982 
 105   2.0000      -0.664976       -18.0949 
 106   2.0000      -0.647428       -17.6174 
 107   2.0000      -0.643125       -17.5003 
 108   2.0000      -0.641705       -17.4617 
 109   2.0000      -0.640362       -17.4251 
 110   2.0000      -0.638953       -17.3868 
 111   2.0000      -0.636747       -17.3268 
 112   2.0000      -0.635415       -17.2905 
 113   2.0000      -0.634056       -17.2535 
 114   2.0000      -0.624082       -16.9821 
 115   2.0000      -0.615810       -16.7570 
 116   2.0000      -0.614616       -16.7245 
 117   2.0000      -0.608143       -16.5484 
 118   2.0000      -0.598289       -16.2803 
 119   2.0000      -0.592795       -16.1308 
 120   2.0000      -0.588775       -16.0214 
 121   2.0000      -0.588334       -16.0094 
 122   2.0000      -0.586296       -15.9539 
 123   2.0000      -0.585545       -15.9335 
 124   2.0000      -0.583778       -15.8854 
 125   2.0000      -0.582077       -15.8391 
 126   2.0000      -0.578141       -15.7320 
 127   2.0000      -0.574610       -15.6359 
 128   2.0000      -0.573622       -15.6090 
 129   2.0000      -0.570552       -15.5255 
 130   2.0000      -0.569101       -15.4860 
 131   2.0000      -0.568010       -15.4563 
 132   2.0000      -0.563807       -15.3420 
 133   2.0000      -0.562111       -15.2958 
 134   2.0000      -0.560928       -15.2636 
 135   2.0000      -0.557599       -15.1731 
 136   2.0000      -0.543986       -14.8026 
 137   2.0000      -0.541782       -14.7426 
 138   2.0000      -0.538003       -14.6398 
 139   2.0000      -0.537415       -14.6238 
 140   2.0000      -0.534623       -14.5478 
 141   2.0000      -0.529945       -14.4205 
 142   2.0000      -0.527503       -14.3541 
 143   2.0000      -0.525612       -14.3026 
 144   2.0000      -0.517345       -14.0777 
 145   2.0000      -0.514365       -13.9966 
 146   2.0000      -0.511407       -13.9161 
 147   2.0000      -0.508946       -13.8491 
 148   2.0000      -0.507656       -13.8140 
 149   2.0000      -0.506644       -13.7865 
 150   2.0000      -0.504892       -13.7388 
 151   2.0000      -0.502797       -13.6818 
 152   2.0000      -0.501913       -13.6577 
 153   2.0000      -0.500224       -13.6118 
 154   2.0000      -0.491805       -13.3827 
 155   2.0000      -0.488761       -13.2999 
 156   2.0000      -0.487737       -13.2720 
 157   2.0000      -0.485654       -13.2153 
 158   2.0000      -0.484756       -13.1909 
 159   2.0000      -0.481881       -13.1127 
 160   2.0000      -0.481809       -13.1107 
 161   2.0000      -0.478446       -13.0192 
 162   2.0000      -0.478022       -13.0076 
 163   2.0000      -0.475581       -12.9412 
 164   2.0000      -0.473487       -12.8842 
 165   2.0000      -0.470594       -12.8055 
 166   2.0000      -0.467924       -12.7328 
 167   2.0000      -0.458376       -12.4730 
 168   2.0000      -0.455826       -12.4037 
 169   2.0000      -0.455352       -12.3908 
 170   2.0000      -0.454793       -12.3755 
 171   2.0000      -0.452932       -12.3249 
 172   2.0000      -0.451497       -12.2859 
 173   2.0000      -0.440512       -11.9869 
 174   2.0000      -0.426944       -11.6177 
 175   2.0000      -0.425264       -11.5720 
 176   2.0000      -0.423710       -11.5297 
 177   2.0000      -0.421843       -11.4789 
 178   2.0000      -0.421026       -11.4567 
 179   2.0000      -0.419477       -11.4146 
 180   2.0000      -0.408050       -11.1036 
 181   2.0000      -0.405640       -11.0380 
 182   2.0000      -0.399257       -10.8643 
 183   2.0000      -0.392775       -10.6879 
 184   2.0000      -0.390982       -10.6392 
 185   2.0000      -0.383476       -10.4349 
 186   2.0000      -0.379874       -10.3369 
 187   2.0000      -0.354708        -9.6521 
 188   2.0000      -0.316508        -8.6126 
 189   2.0000      -0.310673        -8.4538 
 190   2.0000      -0.303554        -8.2601 
 191   2.0000      -0.299991        -8.1632 
 192   2.0000      -0.297238        -8.0883 
 193   2.0000      -0.296339        -8.0638 
 194   2.0000      -0.294215        -8.0060 
 195   2.0000      -0.290805        -7.9132 
[...]
  82:       519.11    5.614895  ( -1.800872  -0.147532  -1.532967)
  83:       530.92    0.504573  ( -0.707654  -0.054554  -0.028688)
  84:       532.48   23.256965  (  0.259458  -4.203691   2.349177)
  85:       538.48    8.100735  (  0.671871   1.211456   2.486302)
  86:       548.35    4.523384  ( -0.250165  -0.581456  -2.030446)
  87:       552.13    3.507704  ( -0.046337   1.834636   0.373724)
  88:       563.29   38.945963  (  0.695669   5.604590  -2.655294)
  89:       563.86   91.170814  (  0.882142   8.288274  -4.658020)
  90:       591.90    0.894524  (  0.003118  -0.944737  -0.044583)
  91:       592.22    0.821401  ( -0.211585  -0.513691   0.716068)
  92:       592.68    0.093175  (  0.059811  -0.291020  -0.070035)
  93:       593.10    4.215233  ( -0.638951  -1.412809   1.345713)
  94:       644.47    8.785452  (  1.318987  -2.557338  -0.711159)
  95:       649.73    5.333889  ( -0.036714  -1.390872   1.843371)
  96:       658.26   15.386008  ( -1.331552  -1.912871   3.154981)
  97:       660.21    7.090567  (  0.141578  -1.904697  -1.855439)
  98:       664.24    0.446306  (  0.307669   0.021314   0.592614)
  99:       665.46    9.888214  (  1.306014  -1.494713  -2.438929)
 100:       665.67    3.442466  (  0.815993   0.325007  -1.634317)
 101:       669.32   28.670593  (  0.233211  -4.818005  -2.324442)
 102:       676.07   29.810151  ( -2.682131   4.634328   1.067393)
 103:       695.42   20.916854  (  2.101806  -0.279278   4.052316)
 104:       738.47   66.567050  ( -2.500078  -4.774540  -6.125392)
 105:       779.44    7.763804  (  0.188049  -2.283830  -1.585106)
 106:       784.73   23.073965  ( -0.625520  -4.178555  -2.285250)
 107:       787.86    6.912324  ( -0.526115   1.802371  -1.840377)
 108:       791.15    5.011830  (  1.780080  -1.335390   0.244704)
 109:       840.02   70.744629  ( -1.195257   7.989257   2.342596)
 110:       864.97    2.781625  (  0.422906  -0.448253   1.549789)
 111:       872.17   11.534500  (  2.891621   0.758085  -1.611935)
 112:       872.71    3.024462  ( -1.148072   1.047211   0.780860)
 113:       881.67   12.911465  ( -0.598927  -1.935944   2.967300)
 114:       900.24   11.300442  ( -1.276295  -1.349412  -2.801892)
 115:      1024.63   19.146713  (  2.837116  -3.068234  -1.297470)
 116:      1032.76   36.250260  (  5.861425   0.532342   1.269080)
 117:      1035.00  239.760562  (-14.012712  -6.551742  -0.692198)
 118:      1037.33   71.446266  ( -7.772814  -0.977148  -3.174084)
 119:      1037.89  126.345487  ( 10.336416  -4.412457  -0.184957)
 120:      1097.45    5.443780  (  0.474261  -0.894269   2.102175)
 121:      1153.76  257.455381  ( -7.132047  10.040581  10.284748)
 122:      1155.73  152.206241  ( -3.354554   6.022359  10.231540)
 123:      1157.46  469.452839  ( -7.303764 -16.177682  12.425396)
 124:      1158.76   59.349006  (  4.026162  -4.125155  -5.110981)
 125:      1165.16   14.870785  ( -0.262344   2.244197  -3.124987)
 126:      1216.19    3.788259  ( -1.404998  -0.982368  -0.921517)
 127:      1217.32    1.877095  ( -1.259267  -0.464355   0.275167)
 128:      1219.34    4.372221  ( -2.024256   0.510682  -0.117521)
 129:      1221.57   29.270212  ( -5.315875  -0.246212  -0.975227)
 130:      1256.42    0.848135  (  0.345299   0.601370  -0.606018)
 131:      1291.42    3.026627  ( -0.870197   1.499300  -0.146572)
 132:      1361.20   17.439146  ( -1.073024   1.035918   3.900595)
 133:      1362.57   62.030436  ( -4.043642  -1.037448   6.678555)
 134:      1363.41   58.745628  ( -0.085780  -7.657414  -0.319813)
 135:      1364.64   12.670482  (  1.748867   2.128714  -2.254002)
 136:      1370.00    0.721665  (  0.689816   0.445686   0.217214)
 137:      1370.93    1.942488  ( -1.114168   0.832008   0.094236)
 138:      1373.83    2.048861  ( -0.968236   0.573596   0.884516)
 139:      1374.18    2.139865  (  0.229733   1.094662  -0.942764)
 140:      1424.43    6.340067  ( -0.630994  -0.981691   2.231187)
 141:      1436.20   10.897303  ( -2.691911  -1.804444  -0.628412)
 142:      1462.51   14.693687  (  0.517832  -2.392691  -2.949673)
 143:      1466.79   22.692999  (  2.356852  -0.337959  -4.126019)
 144:      1469.02   30.297678  ( -0.407509   4.708158  -2.822209)
 145:      1474.55   22.382553  ( -1.890613  -4.331679   0.211405)
 146:      1565.88  109.499776  ( -1.199447  10.370166   0.721637)
 147:      1569.16  349.551656  (  9.235990  16.142203   1.917663)
 148:      1572.30   76.332681  ( -2.922962   0.368469   8.225157)
 149:      1575.60  1101.979433  (-32.816540  -0.389938  -4.990199)
 150:      1599.15   74.747963  (  4.242016   6.939210  -2.932683)
 151:      1600.02  534.306607  (  8.854581   3.783658 -21.013970)
 152:      1601.84  517.961362  (  4.111041 -21.981881  -4.225828)
 153:      1604.06    3.623309  ( -0.404956  -1.516441   1.076905)
 154:      1703.68    0.387131  (  0.179663  -0.182866   0.566933)
 155:      1704.60   13.508528  (  2.871197  -0.188480   2.286751)
 156:      1706.03    6.417826  (  2.060650   1.445231   0.287845)
 157:      1707.51    6.360431  (  2.337450  -0.937148   0.136054)
 158:      1713.96   29.797840  ( -0.513398   4.540215   2.986755)
 159:      1714.72  119.265978  (  6.587119   3.122012  -8.131967)
 160:      1717.96   41.280823  (  3.027790  -4.487907  -3.460058)
 161:      1718.58   42.767030  ( -2.075181  -5.430939   2.994254)
 162:      1999.88  137.603269  (  5.290248  -8.829847   5.625864)
 163:      2139.53  967.090699  (  8.423622  12.376702  27.257119)
 164:      3073.17    4.145926  (  1.000639   0.821592  -1.571507)
 165:      3119.33    0.416246  (  0.162702  -0.348057  -0.518296)
 166:      3182.08    0.549925  (  0.145423  -0.682725   0.250326)
 167:      3194.74    3.093525  ( -1.506862   0.733835   0.533272)

The first frequency considered to be a vibration is 6
The total number of vibrations considered is 162


--------------------------
THERMOCHEMISTRY AT 298.15K
--------------------------

Temperature         ... 298.15 K
Pressure            ... 1.00 atm
Total Mass          ... 890.15 AMU

Throughout the following assumptions are being made:
  (1) The electronic state is orbitally nondegenerate
  (2) There are no thermally accessible electronically excited states
  (3) Hindered rotations indicated by low frequency modes are not
      treated as such but are treated as vibrations and this may
      cause some error
  (4) All equations used are the standard statistical mechanics
      equations for an ideal gas
  (5) All vibrations are strictly harmonic

freq.       4.83  E(vib)   ...       0.59 
freq.      11.93  E(vib)   ...       0.58 
freq.      21.24  E(vib)   ...       0.56 
freq.      22.19  E(vib)   ...       0.56 
freq.      25.26  E(vib)   ...       0.56 
freq.      26.09  E(vib)   ...       0.56 
freq.      27.16  E(vib)   ...       0.55 
freq.      29.70  E(vib)   ...       0.55 
freq.      31.84  E(vib)   ...       0.55 
freq.      35.03  E(vib)   ...       0.54 
freq.      38.42  E(vib)   ...       0.54 
freq.      67.73  E(vib)   ...       0.50 
freq.      72.25  E(vib)   ...       0.50 
freq.      84.04  E(vib)   ...       0.48 
freq.      94.11  E(vib)   ...       0.47 
freq.     101.31  E(vib)   ...       0.46 
freq.     110.96  E(vib)   ...       0.45 
freq.     113.11  E(vib)   ...       0.45 
freq.     118.05  E(vib)   ...       0.44 
freq.     132.99  E(vib)   ...       0.42 
freq.     134.98  E(vib)   ...       0.42 
freq.     136.03  E(vib)   ...       0.42 
freq.     136.41  E(vib)   ...       0.42 
freq.     146.74  E(vib)   ...       0.41 
freq.     149.13  E(vib)   ...       0.40 
freq.     150.37  E(vib)   ...       0.40 
freq.     155.47  E(vib)   ...       0.40 
freq.     159.30  E(vib)   ...       0.39 
freq.     164.39  E(vib)   ...       0.39 
freq.     166.84  E(vib)   ...       0.39 
freq.     169.07  E(vib)   ...       0.38 
freq.     207.06  E(vib)   ...       0.34 
freq.     228.47  E(vib)   ...       0.32 
freq.     231.91  E(vib)   ...       0.32 
freq.     235.60  E(vib)   ...       0.32 
freq.     242.29  E(vib)   ...       0.31 
freq.     266.98  E(vib)   ...       0.29 
freq.     269.27  E(vib)   ...       0.29 
freq.     270.74  E(vib)   ...       0.29 
freq.     271.27  E(vib)   ...       0.29 
freq.     272.14  E(vib)   ...       0.29 
freq.     276.78  E(vib)   ...       0.28 
freq.     279.63  E(vib)   ...       0.28 
freq.     280.09  E(vib)   ...       0.28 
freq.     280.36  E(vib)   ...       0.28 
freq.     284.96  E(vib)   ...       0.28 
freq.     308.94  E(vib)   ...       0.26 
freq.     317.00  E(vib)   ...       0.25 
freq.     318.22  E(vib)   ...       0.25 
freq.     320.28  E(vib)   ...       0.25 
freq.     324.59  E(vib)   ...       0.24 
freq.     330.89  E(vib)   ...       0.24 
freq.     343.92  E(vib)   ...       0.23 
freq.     349.33  E(vib)   ...       0.23 
freq.     352.37  E(vib)   ...       0.23 
freq.     374.01  E(vib)   ...       0.21 
freq.     380.37  E(vib)   ...       0.21 
freq.     388.09  E(vib)   ...       0.20 
freq.     394.11  E(vib)   ...       0.20 
freq.     403.54  E(vib)   ...       0.19 
freq.     408.90  E(vib)   ...       0.19 
freq.     409.33  E(vib)   ...       0.19 
freq.     409.54  E(vib)   ...       0.19 
freq.     411.13  E(vib)   ...       0.19 
freq.     418.68  E(vib)   ...       0.18 
freq.     431.30  E(vib)   ...       0.18 
freq.     440.90  E(vib)   ...       0.17 
freq.     447.41  E(vib)   ...       0.17 
freq.     448.61  E(vib)   ...       0.17 
freq.     450.28  E(vib)   ...       0.17 
freq.     450.84  E(vib)   ...       0.17 
freq.     458.39  E(vib)   ...       0.16 
freq.     471.49  E(vib)   ...       0.15 
freq.     482.35  E(vib)   ...       0.15 
freq.     496.96  E(vib)   ...       0.14 
freq.     517.05  E(vib)   ...       0.13 
freq.     519.11  E(vib)   ...       0.13 
freq.     530.92  E(vib)   ...       0.13 
freq.     532.48  E(vib)   ...       0.13 
freq.     538.48  E(vib)   ...       0.12 
freq.     548.35  E(vib)   ...       0.12 
freq.     552.13  E(vib)   ...       0.12 
freq.     563.29  E(vib)   ...       0.11 
freq.     563.86  E(vib)   ...       0.11 
freq.     591.90  E(vib)   ...       0.10 
freq.     592.22  E(vib)   ...       0.10 
freq.     592.68  E(vib)   ...       0.10 
freq.     593.10  E(vib)   ...       0.10 
freq.     644.47  E(vib)   ...       0.09 
freq.     649.73  E(vib)   ...       0.08 
freq.     658.26  E(vib)   ...       0.08 
freq.     660.21  E(vib)   ...       0.08 
freq.     664.24  E(vib)   ...       0.08 
freq.     665.46  E(vib)   ...       0.08 
freq.     665.67  E(vib)   ...       0.08 
freq.     669.32  E(vib)   ...       0.08 
freq.     676.07  E(vib)   ...       0.08 
freq.     695.42  E(vib)   ...       0.07 
freq.     738.47  E(vib)   ...       0.06 
freq.     779.44  E(vib)   ...       0.05 
freq.     784.73  E(vib)   ...       0.05 
freq.     787.86  E(vib)   ...       0.05 
freq.     791.15  E(vib)   ...       0.05 
freq.     840.02  E(vib)   ...       0.04 
freq.     864.97  E(vib)   ...       0.04 
freq.     872.17  E(vib)   ...       0.04 
freq.     872.71  E(vib)   ...       0.04 
freq.     881.67  E(vib)   ...       0.04 
freq.     900.24  E(vib)   ...       0.03 
freq.    1024.63  E(vib)   ...       0.02 
freq.    1032.76  E(vib)   ...       0.02 
freq.    1035.00  E(vib)   ...       0.02 
freq.    1037.33  E(vib)   ...       0.02 
freq.    1037.89  E(vib)   ...       0.02 
freq.    1097.45  E(vib)   ...       0.02 
freq.    1153.76  E(vib)   ...       0.01 
freq.    1155.73  E(vib)   ...       0.01 
freq.    1157.46  E(vib)   ...       0.01 
freq.    1158.76  E(vib)   ...       0.01 
freq.    1165.16  E(vib)   ...       0.01 
freq.    1216.19  E(vib)   ...       0.01 
freq.    1217.32  E(vib)   ...       0.01 
freq.    1219.34  E(vib)   ...       0.01 
freq.    1221.57  E(vib)   ...       0.01 
freq.    1256.42  E(vib)   ...       0.01 
freq.    1291.42  E(vib)   ...       0.01 
freq.    1361.20  E(vib)   ...       0.01 
freq.    1362.57  E(vib)   ...       0.01 
freq.    1363.41  E(vib)   ...       0.01 
freq.    1364.64  E(vib)   ...       0.01 
freq.    1370.00  E(vib)   ...       0.01 
freq.    1370.93  E(vib)   ...       0.01 
freq.    1373.83  E(vib)   ...       0.01 
freq.    1374.18  E(vib)   ...       0.01 
freq.    1424.43  E(vib)   ...       0.00 
freq.    1436.20  E(vib)   ...       0.00 
freq.    1462.51  E(vib)   ...       0.00 
freq.    1466.79  E(vib)   ...       0.00 
freq.    1469.02  E(vib)   ...       0.00 
freq.    1474.55  E(vib)   ...       0.00 
freq.    1565.88  E(vib)   ...       0.00 
freq.    1569.16  E(vib)   ...       0.00 
freq.    1572.30  E(vib)   ...       0.00 
freq.    1575.60  E(vib)   ...       0.00 
freq.    1599.15  E(vib)   ...       0.00 
freq.    1600.02  E(vib)   ...       0.00 
freq.    1601.84  E(vib)   ...       0.00 
freq.    1604.06  E(vib)   ...       0.00 
freq.    1703.68  E(vib)   ...       0.00 
freq.    1704.60  E(vib)   ...       0.00 
freq.    1706.03  E(vib)   ...       0.00 
freq.    1707.51  E(vib)   ...       0.00 
freq.    1713.96  E(vib)   ...       0.00 
freq.    1714.72  E(vib)   ...       0.00 
freq.    1717.96  E(vib)   ...       0.00 
freq.    1718.58  E(vib)   ...       0.00 
freq.    1999.88  E(vib)   ...       0.00 
freq.    2139.53  E(vib)   ...       0.00 
freq.    3073.17  E(vib)   ...       0.00 
freq.    3119.33  E(vib)   ...       0.00 
freq.    3182.08  E(vib)   ...       0.00 
freq.    3194.74  E(vib)   ...       0.00 

------------
INNER ENERGY
------------

The inner energy is: U= E(el) + E(ZPE) + E(vib) + E(rot) + E(trans)
    E(el)   - is the total energy from the electronic structure calculation
              = E(kin-el) + E(nuc-el) + E(el-el) + E(nuc-nuc)
    E(ZPE)  - the the zero temperature vibrational energy from the frequency calculation
    E(vib)  - the the finite temperature correction to E(ZPE) due to population
              of excited vibrational states
    E(rot)  - is the rotational thermal energy
    E(trans)- is the translational thermal energy

Summary of contributions to the inner energy U:
Electronic energy                ...  -3891.30034896 Eh
Zero point energy                ...      0.28137736 Eh     176.57 kcal/mol
Thermal vibrational correction   ...      0.04470623 Eh      28.05 kcal/mol
Thermal rotational correction    ...      0.00141627 Eh       0.89 kcal/mol
Thermal translational correction ...      0.00141627 Eh       0.89 kcal/mol
-----------------------------------------------------------------------
Total thermal energy                  -3890.97143283 Eh


Summary of corrections to the electronic energy:
(perhaps to be used in another calculation)
Total thermal correction                  0.04753877 Eh      29.83 kcal/mol
Non-thermal (ZPE) correction              0.28137736 Eh     176.57 kcal/mol
-----------------------------------------------------------------------
Total correction                          0.32891613 Eh     206.40 kcal/mol


--------
ENTHALPY
--------

The enthalpy is H = U + kB*T
                kB is Boltzmann's constant
Total free energy                 ...  -3890.97143283 Eh 
Thermal Enthalpy correction       ...      0.00094421 Eh       0.59 kcal/mol
-----------------------------------------------------------------------
Total Enthalpy                    ...  -3890.97048862 Eh


Note: Only C1 symmetry has been detected, increase convergence thresholds 
      if your molecule has a higher symmetry. Symmetry factor of 1.0 is   
      used for the rotational entropy correction. 
 

Note: Rotational entropy computed according to Herzberg 
Infrared and Raman Spectra, Chapter V,1, Van Nostrand Reinhold, 1945 
Point Group:  C1, Symmetry Number:   1  
Rotational constants in cm-1:     0.002089     0.001320     0.001005 

Vibrational entropy computed according to the QRRHO of S. Grimme
Chem.Eur.J. 2012 18 9955


-------
ENTROPY
-------

The entropy contributions are T*S = T*(S(el)+S(vib)+S(rot)+S(trans))
     S(el)   - electronic entropy
     S(vib)  - vibrational entropy
     S(rot)  - rotational entropy
     S(trans)- translational entropy
The entropies will be listed as mutliplied by the temperature to get
units of energy

Electronic entropy                ...      0.00000000 Eh      0.00 kcal/mol
Vibrational entropy               ...      0.08218082 Eh     51.57 kcal/mol
Rotational entropy                ...      0.01881330 Eh     11.81 kcal/mol
Translational entropy             ...      0.02196753 Eh     13.78 kcal/mol
-----------------------------------------------------------------------
Final entropy term                ...      0.12296165 Eh     77.16 kcal/mol

In case the symmetry of your molecule has not been determined correctly
or in case you have a reason to use a different symmetry number we print 
out the resulting rotational entropy values for sn=1,12 :
 --------------------------------------------------------
|  sn= 1 | S(rot)=       0.01881330 Eh     11.81 kcal/mol|
|  sn= 2 | S(rot)=       0.01815885 Eh     11.39 kcal/mol|
|  sn= 3 | S(rot)=       0.01777601 Eh     11.15 kcal/mol|
|  sn= 4 | S(rot)=       0.01750439 Eh     10.98 kcal/mol|
|  sn= 5 | S(rot)=       0.01729370 Eh     10.85 kcal/mol|
|  sn= 6 | S(rot)=       0.01712156 Eh     10.74 kcal/mol|
|  sn= 7 | S(rot)=       0.01697601 Eh     10.65 kcal/mol|
|  sn= 8 | S(rot)=       0.01684993 Eh     10.57 kcal/mol|
|  sn= 9 | S(rot)=       0.01673872 Eh     10.50 kcal/mol|
|  sn=10 | S(rot)=       0.01663924 Eh     10.44 kcal/mol|
|  sn=11 | S(rot)=       0.01654925 Eh     10.38 kcal/mol|
|  sn=12 | S(rot)=       0.01646710 Eh     10.33 kcal/mol|
 --------------------------------------------------------


-------------------
GIBBS FREE ENERGY
-------------------

The Gibbs free energy is G = H - T*S

Total enthalpy                    ...  -3890.97048862 Eh 
Total entropy correction          ...     -0.12296165 Eh    -77.16 kcal/mol
-----------------------------------------------------------------------
Final Gibbs free energy         ...  -3891.09345027 Eh

For completeness - the Gibbs free energy minus the electronic energy
G-E(el)                           ...      0.20689869 Eh    129.83 kcal/mol

--------------------------------------------------------------------------
WARNING: No preset parameters were found for the device that Open MPI
detected:

  Local host:            eu-g9-015-3
  Device name:           mlx5_0
  Device vendor ID:      0x02c9
  Device vendor part ID: 4123

Default device parameters will be used, which may result in lower
performance.  You can edit any of the files specified by the
btl_openib_device_param_files MCA parameter to set values for your
device.

NOTE: You can turn off this warning by setting the MCA parameter
      btl_openib_warn_no_device_params_found to 0.
--------------------------------------------------------------------------
--------------------------------------------------------------------------
WARNING: There is at least non-excluded one OpenFabrics device found,
but there are no active ports detected (or Open MPI was unable to use
them).  This is most certainly not what you wanted.  Check your
cables, subnet manager configuration, etc.  The openib BTL will be
ignored for this job.

  Local host: eu-g9-015-3
--------------------------------------------------------------------------

Timings for individual modules:

Sum of individual times         ...    17587.110 sec (= 293.118 min)
GTO integral calculation        ...      309.317 sec (=   5.155 min)   1.8 %
SCF iterations                  ...     4830.055 sec (=  80.501 min)  27.5 %
SCF Gradient evaluation         ...     1387.969 sec (=  23.133 min)   7.9 %
Geometry relaxation             ...       10.680 sec (=   0.178 min)   0.1 %
Analytical frequency calculation...    11049.089 sec (= 184.151 min)  62.8 %
                             ****ORCA TERMINATED NORMALLY****
TOTAL RUN TIME: 0 days 4 hours 53 minutes 23 seconds 778 msec
