 Entering Gaussian System, Link 0=g09
 Input=dppeG6_step1.com
 Output=dppeG6_step1.log
 Initial command:
 /cluster/apps/gaussian/g09/l1.exe "/scratch/264069220.tmpdir/Gau-46175.inp" -scrdir="/scratch/264069220.tmpdir/"
 Entering Link 1 = /cluster/apps/gaussian/g09/l1.exe PID=     46204.
  
 Copyright (c) 1988,1990,1992,1993,1995,1998,2003,2009,2013,
            Gaussian, Inc.  All Rights Reserved.
  
 This is part of the Gaussian(R) 09 program.  It is based on
 the Gaussian(R) 03 system (copyright 2003, Gaussian, Inc.),
 the Gaussian(R) 98 system (copyright 1998, Gaussian, Inc.),
 the Gaussian(R) 94 system (copyright 1995, Gaussian, Inc.),
 the Gaussian 92(TM) system (copyright 1992, Gaussian, Inc.),
 the Gaussian 90(TM) system (copyright 1990, Gaussian, Inc.),
 the Gaussian 88(TM) system (copyright 1988, Gaussian, Inc.),
 the Gaussian 86(TM) system (copyright 1986, Carnegie Mellon
 University), and the Gaussian 82(TM) system (copyright 1983,
 Carnegie Mellon University). Gaussian is a federally registered
 trademark of Gaussian, Inc.
  
 This software contains proprietary and confidential information,
 including trade secrets, belonging to Gaussian, Inc.
  
 This software is provided under written license and may be
 used, copied, transmitted, or stored only in accord with that
 written license.
  
 The following legend is applicable only to US Government
 contracts under FAR:
  
                    RESTRICTED RIGHTS LEGEND
  
 Use, reproduction and disclosure by the US Government is
 subject to restrictions as set forth in subparagraphs (a)
 and (c) of the Commercial Computer Software - Restricted
 Rights clause in FAR 52.227-19.
  
 Gaussian, Inc.
 340 Quinnipiac St., Bldg. 40, Wallingford CT 06492
  
  
 ---------------------------------------------------------------
 Warning -- This program may not be used in any manner that
 competes with the business of Gaussian, Inc. or will provide
 assistance to any competitor of Gaussian, Inc.  The licensee
 of this program is prohibited from giving any competitor of
 Gaussian, Inc. access to this program.  By using this program,
 the user acknowledges that Gaussian, Inc. is engaged in the
 business of creating and licensing software in the field of
 computational chemistry and represents and warrants to the
 licensee that it is not a competitor of Gaussian, Inc. and that
 it will not use this program in any manner prohibited above.
 ---------------------------------------------------------------
  

 Cite this work as:
 Gaussian 09, Revision D.01,
 M. J. Frisch, G. W. Trucks, H. B. Schlegel, G. E. Scuseria, 
 M. A. Robb, J. R. Cheeseman, G. Scalmani, V. Barone, B. Mennucci, 
 G. A. Petersson, H. Nakatsuji, M. Caricato, X. Li, H. P. Hratchian, 
 A. F. Izmaylov, J. Bloino, G. Zheng, J. L. Sonnenberg, M. Hada, 
 M. Ehara, K. Toyota, R. Fukuda, J. Hasegawa, M. Ishida, T. Nakajima, 
 Y. Honda, O. Kitao, H. Nakai, T. Vreven, J. A. Montgomery, Jr., 
 J. E. Peralta, F. Ogliaro, M. Bearpark, J. J. Heyd, E. Brothers, 
 K. N. Kudin, V. N. Staroverov, T. Keith, R. Kobayashi, J. Normand, 
 K. Raghavachari, A. Rendell, J. C. Burant, S. S. Iyengar, J. Tomasi, 
 M. Cossi, N. Rega, J. M. Millam, M. Klene, J. E. Knox, J. B. Cross, 
 V. Bakken, C. Adamo, J. Jaramillo, R. Gomperts, R. E. Stratmann, 
 O. Yazyev, A. J. Austin, R. Cammi, C. Pomelli, J. W. Ochterski, 
 R. L. Martin, K. Morokuma, V. G. Zakrzewski, G. A. Voth, 
 P. Salvador, J. J. Dannenberg, S. Dapprich, A. D. Daniels, 
 O. Farkas, J. B. Foresman, J. V. Ortiz, J. Cioslowski, 
 and D. J. Fox, Gaussian, Inc., Wallingford CT, 2013.
 
 ******************************************
 Gaussian 09:  ES64L-G09RevD.01 24-Apr-2013
                 7-Nov-2023 
 ******************************************
 %nprocshared=16
 Will use up to   16 processors via shared memory.
 %mem=32GB
 %chk=dppeG6_step1.chk
 ----------------------------------------------------------------------
 #p opt freq=noraman genecp geom=connectivity pbe1pbe empiricaldispersi
 on=gd3bj integral(grid=ultrafine) temperature=298
 ----------------------------------------------------------------------
 1/14=-1,18=20,19=15,26=4,38=1,57=2,112=298000/1,3;
 2/9=110,12=2,17=6,18=5,40=1/2;
 3/5=7,11=2,16=1,17=8,25=1,30=1,71=1,74=-13,75=-5,124=41/1,2,3;
 4//1;
 5/5=2,38=5/2;
 6/7=2,8=2,9=2,10=2,28=1/1;
 7//1,2,3,16;
 1/14=-1,18=20,19=15,26=4/3(2);
 2/9=110/2;
 99//99;
 2/9=110/2;
 3/5=7,6=1,11=2,16=1,17=8,25=1,30=1,71=1,74=-13,75=-5,82=7,124=41/1,2,3;
 4/5=5,16=3,69=1/1;
 5/5=2,38=5/2;
 7//1,2,3,16;
 1/14=-1,18=20,19=15,26=4/3(-5);
 2/9=110/2;
 6/7=2,8=2,9=2,10=2,19=2,28=1/1;
 99/9=1/99;
 Leave Link    1 at Tue Nov  7 04:14:10 2023, MaxMem=  4294967296 cpu:         1.2
 (Enter /cluster/apps/gaussian/g09/l101.exe)
 -----
 title
 -----
 Symbolic Z-matrix:
 Charge =  0 Multiplicity = 1
 Pd                    0.28458   0.31653  -0.19844 
 S                     0.54913  -1.84817  -2.55579 
 P                     0.28406   2.12569   1.14141 
 P                     2.47094  -0.02994   0.57216 
 O                     1.78014  -1.06704  -2.75244 
 O                     0.56209  -3.28542  -2.81399 
 N                     0.05487  -1.5351   -1.04128 
 C                    -1.59592   0.66136  -0.87737 
 C                    -1.93603   1.84251  -1.55088 
 H                    -1.2096    2.65537  -1.62527 
 C                    -3.18026   2.02503  -2.14383 
 H                    -3.43503   2.95119  -2.66328 
 C                    -4.13768   1.00838  -2.07471 
 C                    -3.81898  -0.1852   -1.4264 
 H                    -4.54299  -0.99712  -1.38522 
 C                    -2.55619  -0.36771  -0.83401 
 C                    -2.24393  -1.68727  -0.23352 
 C                    -3.1789   -2.39575   0.523 
 C                    -2.909    -3.66585   1.02522 
 C                    -1.66807  -4.24627   0.78695 
 C                    -0.69942  -3.54526   0.07231 
 C                    -0.96615  -2.27008  -0.44266 
 C                    -0.673    -1.15286  -3.65522 
 H                    -0.3296   -1.35443  -4.6783 
 H                    -1.6311   -1.65317  -3.46523 
 C                     2.55431   0.91142   2.16422 
 H                     1.95728   0.35719   2.90733 
 H                     3.58749   0.98009   2.53912 
 C                     1.95885   2.29318   1.9241 
 H                     2.58767   2.86312   1.2215 
 H                     1.88659   2.88047   2.8517 
 C                     3.13314  -1.68263   0.90079 
 C                     3.44359  -2.13566   2.18853 
 H                     3.34028  -1.47714   3.05358 
 C                     3.88721  -3.44348   2.37695 
 H                     4.12795  -3.79394   3.38342 
 C                     4.01707  -4.30104   1.28594 
 H                     4.35511  -5.32889   1.43783 
 C                     3.70599  -3.8506    0.00339 
 H                     3.78483  -4.52337  -0.8531 
 C                     3.26334  -2.54721  -0.19525 
 H                     2.99832  -2.20071  -1.19786 
 C                     3.72325   0.81742  -0.44711 
 C                     3.32186   1.45668  -1.62462 
 H                     2.28404   1.36486  -1.95464 
 C                     4.25324   2.16158  -2.38667 
 H                     3.93717   2.65133  -3.31059 
 C                     5.58495   2.22177  -1.98139 
 H                     6.31481   2.76988  -2.58217 
 C                     5.99302   1.56755  -0.81729 
 H                     7.04064   1.60023  -0.50883 
 C                     5.06632   0.86432  -0.0533 
 H                     5.3908    0.33631   0.84814 
 C                    -0.06953   3.77087   0.45278 
 C                     0.8423    4.32234  -0.45882 
 H                     1.77263   3.79788  -0.69606 
 C                     0.55671   5.52948  -1.08976 
 H                     1.27337   5.95339  -1.79685 
 C                    -0.64525   6.18842  -0.82828 
 H                    -0.87104   7.13275  -1.329 
 C                    -1.56115   5.63465   0.06386 
 H                    -2.50923   6.14004   0.26116 
 C                    -1.27855   4.42837   0.7023 
 H                    -2.00786   3.98869   1.38561 
 C                    -0.85293   1.90989   2.5488 
 C                    -0.84324   2.80439   3.62905 
 H                    -0.16106   3.65917   3.63204 
 C                    -1.71684   2.6202    4.69654 
 H                    -1.70632   3.3215    5.53417 
 C                    -2.60781   1.54475   4.69406 
 H                    -3.29454   1.40457   5.53228 
 C                    -2.62367   0.65476   3.62289 
 H                    -3.32351  -0.18384   3.60676 
 C                    -1.74795   0.83454   2.55321 
 H                    -1.76363   0.14693   1.7055 
 H                    -0.76005  -0.07665  -3.46464 
 H                    -5.10382   1.14423  -2.51405 
 H                     0.2622   -3.98714  -0.08555 
 H                    -3.65054  -4.19119   1.59005 
 C                    -1.35311  -5.63933   1.36297 
 C                    -4.55465  -1.79083   0.85915 
 F                    -0.75378  -5.50423   2.56507 
 F                    -0.52925  -6.29869   0.52095 
 F                    -2.5002   -6.33624   1.50783 
 F                    -4.42996  -0.45779   1.0322 
 F                    -5.02688  -2.34967   1.9937 
 F                    -5.41313  -2.03476  -0.15378 
 
 NAtoms=     87 NQM=       87 NQMF=       0 NMMI=      0 NMMIF=      0
                NMic=       0 NMicF=      0.
                    Isotopes and Nuclear Properties:
 (Nuclear quadrupole moments (NQMom) in fm**2, nuclear magnetic moments (NMagM)
  in nuclear magnetons)

  Atom         1           2           3           4           5           6           7           8           9          10
 IAtWgt=         106          32          31          31          16          16          14          12          12           1
 AtmWgt= 105.9032000  31.9720718  30.9737634  30.9737634  15.9949146  15.9949146  14.0030740  12.0000000  12.0000000   1.0078250
 NucSpn=           0           0           1           1           0           0           2           0           0           1
 AtZEff=   0.0000000   0.0000000   0.0000000   0.0000000   0.0000000   0.0000000   0.0000000   0.0000000   0.0000000   0.0000000
 NQMom=    0.0000000   0.0000000   0.0000000   0.0000000   0.0000000   0.0000000   2.0440000   0.0000000   0.0000000   0.0000000
 NMagM=    0.0000000   0.0000000   1.1316000   1.1316000   0.0000000   0.0000000   0.4037610   0.0000000   0.0000000   2.7928460
 AtZNuc=  46.0000000  16.0000000  15.0000000  15.0000000   8.0000000   8.0000000   7.0000000   6.0000000   6.0000000   1.0000000

  Atom        11          12          13          14          15          16          17          18          19          20
 IAtWgt=          12           1          12          12           1          12          12          12          12          12
 AtmWgt=  12.0000000   1.0078250  12.0000000  12.0000000   1.0078250  12.0000000  12.0000000  12.0000000  12.0000000  12.0000000
 NucSpn=           0           1           0           0           1           0           0           0           0           0
 AtZEff=   0.0000000   0.0000000   0.0000000   0.0000000   0.0000000   0.0000000   0.0000000   0.0000000   0.0000000   0.0000000
 NQMom=    0.0000000   0.0000000   0.0000000   0.0000000   0.0000000   0.0000000   0.0000000   0.0000000   0.0000000   0.0000000
 NMagM=    0.0000000   2.7928460   0.0000000   0.0000000   2.7928460   0.0000000   0.0000000   0.0000000   0.0000000   0.0000000
 AtZNuc=   6.0000000   1.0000000   6.0000000   6.0000000   1.0000000   6.0000000   6.0000000   6.0000000   6.0000000   6.0000000

  Atom        21          22          23          24          25          26          27          28          29          30
 IAtWgt=          12          12          12           1           1          12           1           1          12           1
 AtmWgt=  12.0000000  12.0000000  12.0000000   1.0078250   1.0078250  12.0000000   1.0078250   1.0078250  12.0000000   1.0078250
 NucSpn=           0           0           0           1           1           0           1           1           0           1
 AtZEff=   0.0000000   0.0000000   0.0000000   0.0000000   0.0000000   0.0000000   0.0000000   0.0000000   0.0000000   0.0000000
 NQMom=    0.0000000   0.0000000   0.0000000   0.0000000   0.0000000   0.0000000   0.0000000   0.0000000   0.0000000   0.0000000
 NMagM=    0.0000000   0.0000000   0.0000000   2.7928460   2.7928460   0.0000000   2.7928460   2.7928460   0.0000000   2.7928460
 AtZNuc=   6.0000000   6.0000000   6.0000000   1.0000000   1.0000000   6.0000000   1.0000000   1.0000000   6.0000000   1.0000000

  Atom        31          32          33          34          35          36          37          38          39          40
 IAtWgt=           1          12          12           1          12           1          12           1          12           1
 AtmWgt=   1.0078250  12.0000000  12.0000000   1.0078250  12.0000000   1.0078250  12.0000000   1.0078250  12.0000000   1.0078250
 NucSpn=           1           0           0           1           0           1           0           1           0           1
 AtZEff=   0.0000000   0.0000000   0.0000000   0.0000000   0.0000000   0.0000000   0.0000000   0.0000000   0.0000000   0.0000000
 NQMom=    0.0000000   0.0000000   0.0000000   0.0000000   0.0000000   0.0000000   0.0000000   0.0000000   0.0000000   0.0000000
 NMagM=    2.7928460   0.0000000   0.0000000   2.7928460   0.0000000   2.7928460   0.0000000   2.7928460   0.0000000   2.7928460
 AtZNuc=   1.0000000   6.0000000   6.0000000   1.0000000   6.0000000   1.0000000   6.0000000   1.0000000   6.0000000   1.0000000

  Atom        41          42          43          44          45          46          47          48          49          50
 IAtWgt=          12           1          12          12           1          12           1          12           1          12
 AtmWgt=  12.0000000   1.0078250  12.0000000  12.0000000   1.0078250  12.0000000   1.0078250  12.0000000   1.0078250  12.0000000
 NucSpn=           0           1           0           0           1           0           1           0           1           0
 AtZEff=   0.0000000   0.0000000   0.0000000   0.0000000   0.0000000   0.0000000   0.0000000   0.0000000   0.0000000   0.0000000
 NQMom=    0.0000000   0.0000000   0.0000000   0.0000000   0.0000000   0.0000000   0.0000000   0.0000000   0.0000000   0.0000000
 NMagM=    0.0000000   2.7928460   0.0000000   0.0000000   2.7928460   0.0000000   2.7928460   0.0000000   2.7928460   0.0000000
 AtZNuc=   6.0000000   1.0000000   6.0000000   6.0000000   1.0000000   6.0000000   1.0000000   6.0000000   1.0000000   6.0000000

  Atom        51          52          53          54          55          56          57          58          59          60
 IAtWgt=           1          12           1          12          12           1          12           1          12           1
 AtmWgt=   1.0078250  12.0000000   1.0078250  12.0000000  12.0000000   1.0078250  12.0000000   1.0078250  12.0000000   1.0078250
 NucSpn=           1           0           1           0           0           1           0           1           0           1
 AtZEff=   0.0000000   0.0000000   0.0000000   0.0000000   0.0000000   0.0000000   0.0000000   0.0000000   0.0000000   0.0000000
 NQMom=    0.0000000   0.0000000   0.0000000   0.0000000   0.0000000   0.0000000   0.0000000   0.0000000   0.0000000   0.0000000
 NMagM=    2.7928460   0.0000000   2.7928460   0.0000000   0.0000000   2.7928460   0.0000000   2.7928460   0.0000000   2.7928460
 AtZNuc=   1.0000000   6.0000000   1.0000000   6.0000000   6.0000000   1.0000000   6.0000000   1.0000000   6.0000000   1.0000000

  Atom        61          62          63          64          65          66          67          68          69          70
 IAtWgt=          12           1          12           1          12          12           1          12           1          12
 AtmWgt=  12.0000000   1.0078250  12.0000000   1.0078250  12.0000000  12.0000000   1.0078250  12.0000000   1.0078250  12.0000000
 NucSpn=           0           1           0           1           0           0           1           0           1           0
 AtZEff=   0.0000000   0.0000000   0.0000000   0.0000000   0.0000000   0.0000000   0.0000000   0.0000000   0.0000000   0.0000000
 NQMom=    0.0000000   0.0000000   0.0000000   0.0000000   0.0000000   0.0000000   0.0000000   0.0000000   0.0000000   0.0000000
 NMagM=    0.0000000   2.7928460   0.0000000   2.7928460   0.0000000   0.0000000   2.7928460   0.0000000   2.7928460   0.0000000
 AtZNuc=   6.0000000   1.0000000   6.0000000   1.0000000   6.0000000   6.0000000   1.0000000   6.0000000   1.0000000   6.0000000

  Atom        71          72          73          74          75          76          77          78          79          80
 IAtWgt=           1          12           1          12           1           1           1           1           1          12
 AtmWgt=   1.0078250  12.0000000   1.0078250  12.0000000   1.0078250   1.0078250   1.0078250   1.0078250   1.0078250  12.0000000
 NucSpn=           1           0           1           0           1           1           1           1           1           0
 AtZEff=   0.0000000   0.0000000   0.0000000   0.0000000   0.0000000   0.0000000   0.0000000   0.0000000   0.0000000   0.0000000
 NQMom=    0.0000000   0.0000000   0.0000000   0.0000000   0.0000000   0.0000000   0.0000000   0.0000000   0.0000000   0.0000000
 NMagM=    2.7928460   0.0000000   2.7928460   0.0000000   2.7928460   2.7928460   2.7928460   2.7928460   2.7928460   0.0000000
 AtZNuc=   1.0000000   6.0000000   1.0000000   6.0000000   1.0000000   1.0000000   1.0000000   1.0000000   1.0000000   6.0000000

  Atom        81          82          83          84          85          86          87
 IAtWgt=          12          19          19          19          19          19          19
 AtmWgt=  12.0000000  18.9984033  18.9984033  18.9984033  18.9984033  18.9984033  18.9984033
 NucSpn=           0           1           1           1           1           1           1
 AtZEff=   0.0000000   0.0000000   0.0000000   0.0000000   0.0000000   0.0000000   0.0000000
 NQMom=    0.0000000   0.0000000   0.0000000   0.0000000   0.0000000   0.0000000   0.0000000
 NMagM=    0.0000000   2.6288670   2.6288670   2.6288670   2.6288670   2.6288670   2.6288670
 AtZNuc=   6.0000000   9.0000000   9.0000000   9.0000000   9.0000000   9.0000000   9.0000000
 Leave Link  101 at Tue Nov  7 04:14:10 2023, MaxMem=  4294967296 cpu:         6.8
 (Enter /cluster/apps/gaussian/g09/l103.exe)

 GradGradGradGradGradGradGradGradGradGradGradGradGradGradGradGradGradGrad
 Berny optimization.
 Initialization pass.
                           ----------------------------
                           !    Initial Parameters    !
                           ! (Angstroms and Degrees)  !
 --------------------------                            --------------------------
 ! Name  Definition              Value          Derivative Info.                !
 --------------------------------------------------------------------------------
 ! R1    R(1,3)                  2.2513         estimate D2E/DX2                !
 ! R2    R(1,4)                  2.3439         estimate D2E/DX2                !
 ! R3    R(1,7)                  2.0474         estimate D2E/DX2                !
 ! R4    R(1,8)                  2.0288         estimate D2E/DX2                !
 ! R5    R(2,5)                  1.4711         estimate D2E/DX2                !
 ! R6    R(2,6)                  1.4603         estimate D2E/DX2                !
 ! R7    R(2,7)                  1.6236         estimate D2E/DX2                !
 ! R8    R(2,23)                 1.7849         estimate D2E/DX2                !
 ! R9    R(3,29)                 1.8562         estimate D2E/DX2                !
 ! R10   R(3,54)                 1.8182         estimate D2E/DX2                !
 ! R11   R(3,65)                 1.8221         estimate D2E/DX2                !
 ! R12   R(4,26)                 1.8514         estimate D2E/DX2                !
 ! R13   R(4,32)                 1.8105         estimate D2E/DX2                !
 ! R14   R(4,43)                 1.8235         estimate D2E/DX2                !
 ! R15   R(7,22)                 1.3932         estimate D2E/DX2                !
 ! R16   R(8,9)                  1.4016         estimate D2E/DX2                !
 ! R17   R(8,16)                 1.4082         estimate D2E/DX2                !
 ! R18   R(9,10)                 1.0927         estimate D2E/DX2                !
 ! R19   R(9,11)                 1.3903         estimate D2E/DX2                !
 ! R20   R(11,12)                1.092          estimate D2E/DX2                !
 ! R21   R(11,13)                1.3982         estimate D2E/DX2                !
 ! R22   R(13,14)                1.3952         estimate D2E/DX2                !
 ! R23   R(13,77)                1.07           estimate D2E/DX2                !
 ! R24   R(14,15)                1.0886         estimate D2E/DX2                !
 ! R25   R(14,16)                1.4067         estimate D2E/DX2                !
 ! R26   R(16,17)                1.483          estimate D2E/DX2                !
 ! R27   R(17,18)                1.3959         estimate D2E/DX2                !
 ! R28   R(17,22)                1.4199         estimate D2E/DX2                !
 ! R29   R(18,19)                1.3922         estimate D2E/DX2                !
 ! R30   R(18,81)                1.54           estimate D2E/DX2                !
 ! R31   R(19,20)                1.3905         estimate D2E/DX2                !
 ! R32   R(19,79)                1.07           estimate D2E/DX2                !
 ! R33   R(20,21)                1.393          estimate D2E/DX2                !
 ! R34   R(20,80)                1.54           estimate D2E/DX2                !
 ! R35   R(21,22)                1.4009         estimate D2E/DX2                !
 ! R36   R(21,78)                1.07           estimate D2E/DX2                !
 ! R37   R(23,24)                1.0978         estimate D2E/DX2                !
 ! R38   R(23,25)                1.0974         estimate D2E/DX2                !
 ! R39   R(23,76)                1.0964         estimate D2E/DX2                !
 ! R40   R(26,27)                1.1027         estimate D2E/DX2                !
 ! R41   R(26,28)                1.1012         estimate D2E/DX2                !
 ! R42   R(26,29)                1.5236         estimate D2E/DX2                !
 ! R43   R(29,30)                1.1018         estimate D2E/DX2                !
 ! R44   R(29,31)                1.1003         estimate D2E/DX2                !
 ! R45   R(32,33)                1.4            estimate D2E/DX2                !
 ! R46   R(32,41)                1.4021         estimate D2E/DX2                !
 ! R47   R(33,34)                1.0921         estimate D2E/DX2                !
 ! R48   R(33,35)                1.3938         estimate D2E/DX2                !
 ! R49   R(35,36)                1.0926         estimate D2E/DX2                !
 ! R50   R(35,37)                1.3938         estimate D2E/DX2                !
 ! R51   R(37,38)                1.0926         estimate D2E/DX2                !
 ! R52   R(37,39)                1.3945         estimate D2E/DX2                !
 ! R53   R(39,40)                1.092          estimate D2E/DX2                !
 ! R54   R(39,41)                1.3908         estimate D2E/DX2                !
 ! R55   R(41,42)                1.0934         estimate D2E/DX2                !
 ! R56   R(43,44)                1.3987         estimate D2E/DX2                !
 ! R57   R(43,52)                1.4004         estimate D2E/DX2                !
 ! R58   R(44,45)                1.0929         estimate D2E/DX2                !
 ! R59   R(44,46)                1.3947         estimate D2E/DX2                !
 ! R60   R(46,47)                1.0924         estimate D2E/DX2                !
 ! R61   R(46,48)                1.3933         estimate D2E/DX2                !
 ! R62   R(48,49)                1.0927         estimate D2E/DX2                !
 ! R63   R(48,50)                1.3963         estimate D2E/DX2                !
 ! R64   R(50,51)                1.0926         estimate D2E/DX2                !
 ! R65   R(50,52)                1.3918         estimate D2E/DX2                !
 ! R66   R(52,53)                1.0939         estimate D2E/DX2                !
 ! R67   R(54,55)                1.4023         estimate D2E/DX2                !
 ! R68   R(54,63)                1.3987         estimate D2E/DX2                !
 ! R69   R(55,56)                1.094          estimate D2E/DX2                !
 ! R70   R(55,57)                1.3917         estimate D2E/DX2                !
 ! R71   R(57,58)                1.0924         estimate D2E/DX2                !
 ! R72   R(57,59)                1.3955         estimate D2E/DX2                !
 ! R73   R(59,60)                1.0925         estimate D2E/DX2                !
 ! R74   R(59,61)                1.3934         estimate D2E/DX2                !
 ! R75   R(61,62)                1.0923         estimate D2E/DX2                !
 ! R76   R(61,63)                1.3938         estimate D2E/DX2                !
 ! R77   R(63,64)                1.0918         estimate D2E/DX2                !
 ! R78   R(65,66)                1.4026         estimate D2E/DX2                !
 ! R79   R(65,74)                1.3991         estimate D2E/DX2                !
 ! R80   R(66,67)                1.0936         estimate D2E/DX2                !
 ! R81   R(66,68)                1.3916         estimate D2E/DX2                !
 ! R82   R(68,69)                1.0925         estimate D2E/DX2                !
 ! R83   R(68,70)                1.3966         estimate D2E/DX2                !
 ! R84   R(70,71)                1.0926         estimate D2E/DX2                !
 ! R85   R(70,72)                1.3927         estimate D2E/DX2                !
 ! R86   R(72,73)                1.0924         estimate D2E/DX2                !
 ! R87   R(72,74)                1.3941         estimate D2E/DX2                !
 ! R88   R(74,75)                1.0916         estimate D2E/DX2                !
 ! R89   R(80,82)                1.35           estimate D2E/DX2                !
 ! R90   R(80,83)                1.35           estimate D2E/DX2                !
 ! R91   R(80,84)                1.35           estimate D2E/DX2                !
 ! R92   R(81,85)                1.35           estimate D2E/DX2                !
 ! R93   R(81,86)                1.35           estimate D2E/DX2                !
 ! R94   R(81,87)                1.35           estimate D2E/DX2                !
 ! A1    A(3,1,4)               85.6035         estimate D2E/DX2                !
 ! A2    A(3,1,8)               93.5753         estimate D2E/DX2                !
 ! A3    A(4,1,7)               96.1029         estimate D2E/DX2                !
 ! A4    A(7,1,8)               84.9489         estimate D2E/DX2                !
 ! A5    A(5,2,6)              119.441          estimate D2E/DX2                !
 ! A6    A(5,2,7)              106.084          estimate D2E/DX2                !
 ! A7    A(5,2,23)             106.4853         estimate D2E/DX2                !
 ! A8    A(6,2,7)              110.9415         estimate D2E/DX2                !
 ! A9    A(6,2,23)             106.294          estimate D2E/DX2                !
 ! A10   A(7,2,23)             106.9191         estimate D2E/DX2                !
 ! A11   A(1,3,29)             108.8596         estimate D2E/DX2                !
 ! A12   A(1,3,54)             120.1181         estimate D2E/DX2                !
 ! A13   A(1,3,65)             111.3864         estimate D2E/DX2                !
 ! A14   A(29,3,54)            104.686          estimate D2E/DX2                !
 ! A15   A(29,3,65)            104.3591         estimate D2E/DX2                !
 ! A16   A(54,3,65)            106.1621         estimate D2E/DX2                !
 ! A17   A(1,4,26)             104.4509         estimate D2E/DX2                !
 ! A18   A(1,4,32)             122.3966         estimate D2E/DX2                !
 ! A19   A(1,4,43)             112.8386         estimate D2E/DX2                !
 ! A20   A(26,4,32)            106.9525         estimate D2E/DX2                !
 ! A21   A(26,4,43)            102.3251         estimate D2E/DX2                !
 ! A22   A(32,4,43)            105.9295         estimate D2E/DX2                !
 ! A23   A(1,7,2)              121.6179         estimate D2E/DX2                !
 ! A24   A(1,7,22)             112.4857         estimate D2E/DX2                !
 ! A25   A(2,7,22)             121.4787         estimate D2E/DX2                !
 ! A26   A(1,8,9)              121.936          estimate D2E/DX2                !
 ! A27   A(1,8,16)             119.8384         estimate D2E/DX2                !
 ! A28   A(9,8,16)             117.7209         estimate D2E/DX2                !
 ! A29   A(8,9,10)             119.8876         estimate D2E/DX2                !
 ! A30   A(8,9,11)             122.191          estimate D2E/DX2                !
 ! A31   A(10,9,11)            117.9209         estimate D2E/DX2                !
 ! A32   A(9,11,12)            121.5331         estimate D2E/DX2                !
 ! A33   A(9,11,13)            119.7522         estimate D2E/DX2                !
 ! A34   A(12,11,13)           118.714          estimate D2E/DX2                !
 ! A35   A(11,13,14)           119.2486         estimate D2E/DX2                !
 ! A36   A(11,13,77)           120.3757         estimate D2E/DX2                !
 ! A37   A(14,13,77)           120.3757         estimate D2E/DX2                !
 ! A38   A(13,14,15)           120.246          estimate D2E/DX2                !
 ! A39   A(13,14,16)           120.7794         estimate D2E/DX2                !
 ! A40   A(15,14,16)           118.9683         estimate D2E/DX2                !
 ! A41   A(8,16,14)            120.2895         estimate D2E/DX2                !
 ! A42   A(8,16,17)            121.2731         estimate D2E/DX2                !
 ! A43   A(14,16,17)           118.3571         estimate D2E/DX2                !
 ! A44   A(16,17,18)           122.0073         estimate D2E/DX2                !
 ! A45   A(16,17,22)           119.674          estimate D2E/DX2                !
 ! A46   A(18,17,22)           118.3116         estimate D2E/DX2                !
 ! A47   A(17,18,19)           121.9173         estimate D2E/DX2                !
 ! A48   A(17,18,81)           121.152          estimate D2E/DX2                !
 ! A49   A(19,18,81)           116.9234         estimate D2E/DX2                !
 ! A50   A(18,19,20)           119.4722         estimate D2E/DX2                !
 ! A51   A(18,19,79)           120.2639         estimate D2E/DX2                !
 ! A52   A(20,19,79)           120.2639         estimate D2E/DX2                !
 ! A53   A(19,20,21)           119.8948         estimate D2E/DX2                !
 ! A54   A(19,20,80)           119.7363         estimate D2E/DX2                !
 ! A55   A(21,20,80)           120.3248         estimate D2E/DX2                !
 ! A56   A(20,21,22)           120.9502         estimate D2E/DX2                !
 ! A57   A(20,21,78)           119.5249         estimate D2E/DX2                !
 ! A58   A(22,21,78)           119.5249         estimate D2E/DX2                !
 ! A59   A(7,22,17)            120.414          estimate D2E/DX2                !
 ! A60   A(7,22,21)            119.9099         estimate D2E/DX2                !
 ! A61   A(17,22,21)           119.3951         estimate D2E/DX2                !
 ! A62   A(2,23,24)            106.7573         estimate D2E/DX2                !
 ! A63   A(2,23,25)            108.2732         estimate D2E/DX2                !
 ! A64   A(2,23,76)            109.2485         estimate D2E/DX2                !
 ! A65   A(24,23,25)           110.5313         estimate D2E/DX2                !
 ! A66   A(24,23,76)           111.5331         estimate D2E/DX2                !
 ! A67   A(25,23,76)           110.3702         estimate D2E/DX2                !
 ! A68   A(4,26,27)            107.4323         estimate D2E/DX2                !
 ! A69   A(4,26,28)            111.5119         estimate D2E/DX2                !
 ! A70   A(4,26,29)            107.9384         estimate D2E/DX2                !
 ! A71   A(27,26,28)           108.0528         estimate D2E/DX2                !
 ! A72   A(27,26,29)           110.5139         estimate D2E/DX2                !
 ! A73   A(28,26,29)           111.3314         estimate D2E/DX2                !
 ! A74   A(3,29,26)            109.7085         estimate D2E/DX2                !
 ! A75   A(3,29,30)            107.0214         estimate D2E/DX2                !
 ! A76   A(3,29,31)            110.1449         estimate D2E/DX2                !
 ! A77   A(26,29,30)           110.2777         estimate D2E/DX2                !
 ! A78   A(26,29,31)           112.1404         estimate D2E/DX2                !
 ! A79   A(30,29,31)           107.3972         estimate D2E/DX2                !
 ! A80   A(4,32,33)            122.9204         estimate D2E/DX2                !
 ! A81   A(4,32,41)            117.0632         estimate D2E/DX2                !
 ! A82   A(33,32,41)           119.9291         estimate D2E/DX2                !
 ! A83   A(32,33,34)           120.8311         estimate D2E/DX2                !
 ! A84   A(32,33,35)           119.9058         estimate D2E/DX2                !
 ! A85   A(34,33,35)           119.2628         estimate D2E/DX2                !
 ! A86   A(33,35,36)           119.7116         estimate D2E/DX2                !
 ! A87   A(33,35,37)           120.0763         estimate D2E/DX2                !
 ! A88   A(36,35,37)           120.2115         estimate D2E/DX2                !
 ! A89   A(35,37,38)           119.9212         estimate D2E/DX2                !
 ! A90   A(35,37,39)           120.0274         estimate D2E/DX2                !
 ! A91   A(38,37,39)           120.0495         estimate D2E/DX2                !
 ! A92   A(37,39,40)           120.4155         estimate D2E/DX2                !
 ! A93   A(37,39,41)           120.3375         estimate D2E/DX2                !
 ! A94   A(40,39,41)           119.232          estimate D2E/DX2                !
 ! A95   A(32,41,39)           119.7232         estimate D2E/DX2                !
 ! A96   A(32,41,42)           119.9271         estimate D2E/DX2                !
 ! A97   A(39,41,42)           120.3388         estimate D2E/DX2                !
 ! A98   A(4,43,44)            119.0694         estimate D2E/DX2                !
 ! A99   A(4,43,52)            121.1324         estimate D2E/DX2                !
 ! A100  A(44,43,52)           119.78           estimate D2E/DX2                !
 ! A101  A(43,44,45)           119.2316         estimate D2E/DX2                !
 ! A102  A(43,44,46)           119.9577         estimate D2E/DX2                !
 ! A103  A(45,44,46)           120.7725         estimate D2E/DX2                !
 ! A104  A(44,46,47)           119.703          estimate D2E/DX2                !
 ! A105  A(44,46,48)           120.0785         estimate D2E/DX2                !
 ! A106  A(47,46,48)           120.2104         estimate D2E/DX2                !
 ! A107  A(46,48,49)           120.0086         estimate D2E/DX2                !
 ! A108  A(46,48,50)           120.1053         estimate D2E/DX2                !
 ! A109  A(49,48,50)           119.8805         estimate D2E/DX2                !
 ! A110  A(48,50,51)           120.1051         estimate D2E/DX2                !
 ! A111  A(48,50,52)           119.987          estimate D2E/DX2                !
 ! A112  A(51,50,52)           119.9062         estimate D2E/DX2                !
 ! A113  A(43,52,50)           120.0757         estimate D2E/DX2                !
 ! A114  A(43,52,53)           120.003          estimate D2E/DX2                !
 ! A115  A(50,52,53)           119.9159         estimate D2E/DX2                !
 ! A116  A(3,54,55)            118.3973         estimate D2E/DX2                !
 ! A117  A(3,54,63)            121.7285         estimate D2E/DX2                !
 ! A118  A(55,54,63)           119.5478         estimate D2E/DX2                !
 ! A119  A(54,55,56)           120.3566         estimate D2E/DX2                !
 ! A120  A(54,55,57)           120.1577         estimate D2E/DX2                !
 ! A121  A(56,55,57)           119.4726         estimate D2E/DX2                !
 ! A122  A(55,57,58)           119.6986         estimate D2E/DX2                !
 ! A123  A(55,57,59)           120.0918         estimate D2E/DX2                !
 ! A124  A(58,57,59)           120.2072         estimate D2E/DX2                !
 ! A125  A(57,59,60)           120.0215         estimate D2E/DX2                !
 ! A126  A(57,59,61)           119.9004         estimate D2E/DX2                !
 ! A127  A(60,59,61)           120.076          estimate D2E/DX2                !
 ! A128  A(59,61,62)           120.1516         estimate D2E/DX2                !
 ! A129  A(59,61,63)           120.2637         estimate D2E/DX2                !
 ! A130  A(62,61,63)           119.5829         estimate D2E/DX2                !
 ! A131  A(54,63,61)           120.0269         estimate D2E/DX2                !
 ! A132  A(54,63,64)           119.9819         estimate D2E/DX2                !
 ! A133  A(61,63,64)           119.9844         estimate D2E/DX2                !
 ! A134  A(3,65,66)            121.0009         estimate D2E/DX2                !
 ! A135  A(3,65,74)            119.5145         estimate D2E/DX2                !
 ! A136  A(66,65,74)           119.4845         estimate D2E/DX2                !
 ! A137  A(65,66,67)           120.3245         estimate D2E/DX2                !
 ! A138  A(65,66,68)           120.1357         estimate D2E/DX2                !
 ! A139  A(67,66,68)           119.5333         estimate D2E/DX2                !
 ! A140  A(66,68,69)           119.8092         estimate D2E/DX2                !
 ! A141  A(66,68,70)           120.0692         estimate D2E/DX2                !
 ! A142  A(69,68,70)           120.121          estimate D2E/DX2                !
 ! A143  A(68,70,71)           119.8939         estimate D2E/DX2                !
 ! A144  A(68,70,72)           120.0473         estimate D2E/DX2                !
 ! A145  A(71,70,72)           120.0585         estimate D2E/DX2                !
 ! A146  A(70,72,73)           120.6115         estimate D2E/DX2                !
 ! A147  A(70,72,74)           120.0384         estimate D2E/DX2                !
 ! A148  A(73,72,74)           119.3485         estimate D2E/DX2                !
 ! A149  A(65,74,72)           120.2245         estimate D2E/DX2                !
 ! A150  A(65,74,75)           119.3986         estimate D2E/DX2                !
 ! A151  A(72,74,75)           120.3712         estimate D2E/DX2                !
 ! A152  A(20,80,82)           109.4712         estimate D2E/DX2                !
 ! A153  A(20,80,83)           109.4712         estimate D2E/DX2                !
 ! A154  A(20,80,84)           109.4712         estimate D2E/DX2                !
 ! A155  A(82,80,83)           109.4712         estimate D2E/DX2                !
 ! A156  A(82,80,84)           109.4713         estimate D2E/DX2                !
 ! A157  A(83,80,84)           109.4712         estimate D2E/DX2                !
 ! A158  A(18,81,85)           109.4712         estimate D2E/DX2                !
 ! A159  A(18,81,86)           109.4712         estimate D2E/DX2                !
 ! A160  A(18,81,87)           109.4712         estimate D2E/DX2                !
 ! A161  A(85,81,86)           109.4712         estimate D2E/DX2                !
 ! A162  A(85,81,87)           109.4712         estimate D2E/DX2                !
 ! A163  A(86,81,87)           109.4713         estimate D2E/DX2                !
 ! A164  L(3,1,7,8,-1)         178.5242         estimate D2E/DX2                !
 ! A165  L(4,1,8,7,-1)         181.0518         estimate D2E/DX2                !
 ! A166  L(3,1,7,8,-2)         193.6054         estimate D2E/DX2                !
 ! A167  L(4,1,8,7,-2)         180.8594         estimate D2E/DX2                !
 ! D1    D(4,1,3,29)             3.1462         estimate D2E/DX2                !
 ! D2    D(4,1,3,54)           123.6686         estimate D2E/DX2                !
 ! D3    D(4,1,3,65)          -111.3871         estimate D2E/DX2                !
 ! D4    D(8,1,3,29)          -175.7725         estimate D2E/DX2                !
 ! D5    D(8,1,3,54)           -55.25           estimate D2E/DX2                !
 ! D6    D(8,1,3,65)            69.6943         estimate D2E/DX2                !
 ! D7    D(29,3,7,2)           -83.9131         estimate D2E/DX2                !
 ! D8    D(29,3,7,22)          118.7289         estimate D2E/DX2                !
 ! D9    D(54,3,7,2)            41.6874         estimate D2E/DX2                !
 ! D10   D(54,3,7,22)         -115.6706         estimate D2E/DX2                !
 ! D11   D(65,3,7,2)           164.3079         estimate D2E/DX2                !
 ! D12   D(65,3,7,22)            6.9499         estimate D2E/DX2                !
 ! D13   D(3,1,4,26)            21.0246         estimate D2E/DX2                !
 ! D14   D(3,1,4,32)           142.3656         estimate D2E/DX2                !
 ! D15   D(3,1,4,43)           -89.3232         estimate D2E/DX2                !
 ! D16   D(7,1,4,26)          -145.3783         estimate D2E/DX2                !
 ! D17   D(7,1,4,32)           -24.0373         estimate D2E/DX2                !
 ! D18   D(7,1,4,43)           104.2739         estimate D2E/DX2                !
 ! D19   D(26,4,8,9)            80.8271         estimate D2E/DX2                !
 ! D20   D(26,4,8,16)         -107.4624         estimate D2E/DX2                !
 ! D21   D(32,4,8,9)          -157.5716         estimate D2E/DX2                !
 ! D22   D(32,4,8,16)           14.1388         estimate D2E/DX2                !
 ! D23   D(43,4,8,9)           -29.2105         estimate D2E/DX2                !
 ! D24   D(43,4,8,16)          142.5            estimate D2E/DX2                !
 ! D25   D(4,1,7,2)            -85.8331         estimate D2E/DX2                !
 ! D26   D(4,1,7,22)           117.4618         estimate D2E/DX2                !
 ! D27   D(8,1,7,2)             93.3075         estimate D2E/DX2                !
 ! D28   D(8,1,7,22)           -63.3977         estimate D2E/DX2                !
 ! D29   D(3,1,8,9)             59.9381         estimate D2E/DX2                !
 ! D30   D(3,1,8,16)          -128.3996         estimate D2E/DX2                !
 ! D31   D(7,1,8,9)           -133.6673         estimate D2E/DX2                !
 ! D32   D(7,1,8,16)            37.995          estimate D2E/DX2                !
 ! D33   D(5,2,7,1)             35.7195         estimate D2E/DX2                !
 ! D34   D(5,2,7,22)          -169.6498         estimate D2E/DX2                !
 ! D35   D(6,2,7,1)            166.8727         estimate D2E/DX2                !
 ! D36   D(6,2,7,22)           -38.4966         estimate D2E/DX2                !
 ! D37   D(23,2,7,1)           -77.6336         estimate D2E/DX2                !
 ! D38   D(23,2,7,22)           76.9971         estimate D2E/DX2                !
 ! D39   D(5,2,23,24)           66.1916         estimate D2E/DX2                !
 ! D40   D(5,2,23,25)         -174.7861         estimate D2E/DX2                !
 ! D41   D(5,2,23,76)          -54.5492         estimate D2E/DX2                !
 ! D42   D(6,2,23,24)          -62.1649         estimate D2E/DX2                !
 ! D43   D(6,2,23,25)           56.8573         estimate D2E/DX2                !
 ! D44   D(6,2,23,76)          177.0943         estimate D2E/DX2                !
 ! D45   D(7,2,23,24)          179.2715         estimate D2E/DX2                !
 ! D46   D(7,2,23,25)          -61.7063         estimate D2E/DX2                !
 ! D47   D(7,2,23,76)           58.5307         estimate D2E/DX2                !
 ! D48   D(1,3,29,26)          -33.3594         estimate D2E/DX2                !
 ! D49   D(1,3,29,30)           86.2882         estimate D2E/DX2                !
 ! D50   D(1,3,29,31)         -157.2648         estimate D2E/DX2                !
 ! D51   D(54,3,29,26)        -162.9788         estimate D2E/DX2                !
 ! D52   D(54,3,29,30)         -43.3312         estimate D2E/DX2                !
 ! D53   D(54,3,29,31)          73.1158         estimate D2E/DX2                !
 ! D54   D(65,3,29,26)          85.6672         estimate D2E/DX2                !
 ! D55   D(65,3,29,30)        -154.6852         estimate D2E/DX2                !
 ! D56   D(65,3,29,31)         -38.2382         estimate D2E/DX2                !
 ! D57   D(1,3,54,55)          -65.9872         estimate D2E/DX2                !
 ! D58   D(1,3,54,63)          107.4201         estimate D2E/DX2                !
 ! D59   D(29,3,54,55)          56.5849         estimate D2E/DX2                !
 ! D60   D(29,3,54,63)        -130.0079         estimate D2E/DX2                !
 ! D61   D(65,3,54,55)         166.6372         estimate D2E/DX2                !
 ! D62   D(65,3,54,63)         -19.9556         estimate D2E/DX2                !
 ! D63   D(1,3,65,66)          168.8546         estimate D2E/DX2                !
 ! D64   D(1,3,65,74)          -11.0491         estimate D2E/DX2                !
 ! D65   D(29,3,65,66)          51.5577         estimate D2E/DX2                !
 ! D66   D(29,3,65,74)        -128.346          estimate D2E/DX2                !
 ! D67   D(54,3,65,66)         -58.7252         estimate D2E/DX2                !
 ! D68   D(54,3,65,74)         121.3711         estimate D2E/DX2                !
 ! D69   D(1,4,26,27)           72.1012         estimate D2E/DX2                !
 ! D70   D(1,4,26,28)         -169.6765         estimate D2E/DX2                !
 ! D71   D(1,4,26,29)          -47.0899         estimate D2E/DX2                !
 ! D72   D(32,4,26,27)         -58.968          estimate D2E/DX2                !
 ! D73   D(32,4,26,28)          59.2543         estimate D2E/DX2                !
 ! D74   D(32,4,26,29)        -178.159          estimate D2E/DX2                !
 ! D75   D(43,4,26,27)        -170.0862         estimate D2E/DX2                !
 ! D76   D(43,4,26,28)         -51.8639         estimate D2E/DX2                !
 ! D77   D(43,4,26,29)          70.7227         estimate D2E/DX2                !
 ! D78   D(1,4,32,33)         -112.0348         estimate D2E/DX2                !
 ! D79   D(1,4,32,41)           64.5597         estimate D2E/DX2                !
 ! D80   D(26,4,32,33)           8.1239         estimate D2E/DX2                !
 ! D81   D(26,4,32,41)        -175.2815         estimate D2E/DX2                !
 ! D82   D(43,4,32,33)         116.7305         estimate D2E/DX2                !
 ! D83   D(43,4,32,41)         -66.6749         estimate D2E/DX2                !
 ! D84   D(1,4,43,44)           -6.3261         estimate D2E/DX2                !
 ! D85   D(1,4,43,52)          172.1178         estimate D2E/DX2                !
 ! D86   D(26,4,43,44)        -117.9915         estimate D2E/DX2                !
 ! D87   D(26,4,43,52)          60.4523         estimate D2E/DX2                !
 ! D88   D(32,4,43,44)         130.1239         estimate D2E/DX2                !
 ! D89   D(32,4,43,52)         -51.4322         estimate D2E/DX2                !
 ! D90   D(1,7,22,17)           48.8347         estimate D2E/DX2                !
 ! D91   D(1,7,22,21)         -125.0408         estimate D2E/DX2                !
 ! D92   D(2,7,22,17)         -107.9072         estimate D2E/DX2                !
 ! D93   D(2,7,22,21)           78.2172         estimate D2E/DX2                !
 ! D94   D(1,8,9,10)            -6.8195         estimate D2E/DX2                !
 ! D95   D(1,8,9,11)           172.9261         estimate D2E/DX2                !
 ! D96   D(16,8,9,10)         -178.6505         estimate D2E/DX2                !
 ! D97   D(16,8,9,11)            1.0951         estimate D2E/DX2                !
 ! D98   D(1,8,16,14)         -173.4137         estimate D2E/DX2                !
 ! D99   D(1,8,16,17)            3.275          estimate D2E/DX2                !
 ! D100  D(9,8,16,14)           -1.4046         estimate D2E/DX2                !
 ! D101  D(9,8,16,17)          175.2841         estimate D2E/DX2                !
 ! D102  D(8,9,11,12)          179.802          estimate D2E/DX2                !
 ! D103  D(8,9,11,13)            0.0918         estimate D2E/DX2                !
 ! D104  D(10,9,11,12)          -0.4476         estimate D2E/DX2                !
 ! D105  D(10,9,11,13)         179.8422         estimate D2E/DX2                !
 ! D106  D(9,11,13,14)          -0.9751         estimate D2E/DX2                !
 ! D107  D(9,11,13,77)         179.0249         estimate D2E/DX2                !
 ! D108  D(12,11,13,14)        179.3065         estimate D2E/DX2                !
 ! D109  D(12,11,13,77)         -0.6935         estimate D2E/DX2                !
 ! D110  D(11,13,14,15)       -178.4259         estimate D2E/DX2                !
 ! D111  D(11,13,14,16)          0.6533         estimate D2E/DX2                !
 ! D112  D(77,13,14,15)          1.5741         estimate D2E/DX2                !
 ! D113  D(77,13,14,16)       -179.3467         estimate D2E/DX2                !
 ! D114  D(13,14,16,8)           0.5589         estimate D2E/DX2                !
 ! D115  D(13,14,16,17)       -176.2251         estimate D2E/DX2                !
 ! D116  D(15,14,16,8)         179.6497         estimate D2E/DX2                !
 ! D117  D(15,14,16,17)          2.8657         estimate D2E/DX2                !
 ! D118  D(8,16,17,18)         141.755          estimate D2E/DX2                !
 ! D119  D(8,16,17,22)         -39.2291         estimate D2E/DX2                !
 ! D120  D(14,16,17,18)        -41.4941         estimate D2E/DX2                !
 ! D121  D(14,16,17,22)        137.5218         estimate D2E/DX2                !
 ! D122  D(16,17,18,19)        176.4684         estimate D2E/DX2                !
 ! D123  D(16,17,18,81)         -4.5496         estimate D2E/DX2                !
 ! D124  D(22,17,18,19)         -2.5604         estimate D2E/DX2                !
 ! D125  D(22,17,18,81)        176.4216         estimate D2E/DX2                !
 ! D126  D(16,17,22,7)           9.1778         estimate D2E/DX2                !
 ! D127  D(16,17,22,21)       -176.9153         estimate D2E/DX2                !
 ! D128  D(18,17,22,7)        -171.7701         estimate D2E/DX2                !
 ! D129  D(18,17,22,21)          2.1368         estimate D2E/DX2                !
 ! D130  D(17,18,19,20)          0.8968         estimate D2E/DX2                !
 ! D131  D(17,18,19,79)       -179.1032         estimate D2E/DX2                !
 ! D132  D(81,18,19,20)       -178.126          estimate D2E/DX2                !
 ! D133  D(81,18,19,79)          1.874          estimate D2E/DX2                !
 ! D134  D(17,18,81,85)        -34.367          estimate D2E/DX2                !
 ! D135  D(17,18,81,86)       -154.367          estimate D2E/DX2                !
 ! D136  D(17,18,81,87)         85.6329         estimate D2E/DX2                !
 ! D137  D(19,18,81,85)        144.6638         estimate D2E/DX2                !
 ! D138  D(19,18,81,86)         24.6638         estimate D2E/DX2                !
 ! D139  D(19,18,81,87)        -95.3362         estimate D2E/DX2                !
 ! D140  D(18,19,20,21)          1.2128         estimate D2E/DX2                !
 ! D141  D(18,19,20,80)        178.8053         estimate D2E/DX2                !
 ! D142  D(79,19,20,21)       -178.7872         estimate D2E/DX2                !
 ! D143  D(79,19,20,80)         -1.1947         estimate D2E/DX2                !
 ! D144  D(19,20,21,22)         -1.5952         estimate D2E/DX2                !
 ! D145  D(19,20,21,78)        178.4048         estimate D2E/DX2                !
 ! D146  D(80,20,21,22)       -179.1733         estimate D2E/DX2                !
 ! D147  D(80,20,21,78)          0.8267         estimate D2E/DX2                !
 ! D148  D(19,20,80,82)        -92.5554         estimate D2E/DX2                !
 ! D149  D(19,20,80,83)        147.4446         estimate D2E/DX2                !
 ! D150  D(19,20,80,84)         27.4446         estimate D2E/DX2                !
 ! D151  D(21,20,80,82)         85.0265         estimate D2E/DX2                !
 ! D152  D(21,20,80,83)        -34.9735         estimate D2E/DX2                !
 ! D153  D(21,20,80,84)       -154.9735         estimate D2E/DX2                !
 ! D154  D(20,21,22,7)         173.83           estimate D2E/DX2                !
 ! D155  D(20,21,22,17)         -0.1081         estimate D2E/DX2                !
 ! D156  D(78,21,22,7)          -6.17           estimate D2E/DX2                !
 ! D157  D(78,21,22,17)        179.8919         estimate D2E/DX2                !
 ! D158  D(4,26,29,3)           51.8749         estimate D2E/DX2                !
 ! D159  D(4,26,29,30)         -65.7602         estimate D2E/DX2                !
 ! D160  D(4,26,29,31)         174.6061         estimate D2E/DX2                !
 ! D161  D(27,26,29,3)         -65.3403         estimate D2E/DX2                !
 ! D162  D(27,26,29,30)        177.0247         estimate D2E/DX2                !
 ! D163  D(27,26,29,31)         57.391          estimate D2E/DX2                !
 ! D164  D(28,26,29,3)         174.5721         estimate D2E/DX2                !
 ! D165  D(28,26,29,30)         56.937          estimate D2E/DX2                !
 ! D166  D(28,26,29,31)        -62.6967         estimate D2E/DX2                !
 ! D167  D(4,32,33,34)          -3.0321         estimate D2E/DX2                !
 ! D168  D(4,32,33,35)         176.7914         estimate D2E/DX2                !
 ! D169  D(41,32,33,34)       -179.5328         estimate D2E/DX2                !
 ! D170  D(41,32,33,35)          0.2907         estimate D2E/DX2                !
 ! D171  D(4,32,41,39)        -176.9518         estimate D2E/DX2                !
 ! D172  D(4,32,41,42)           1.8518         estimate D2E/DX2                !
 ! D173  D(33,32,41,39)         -0.2502         estimate D2E/DX2                !
 ! D174  D(33,32,41,42)        178.5534         estimate D2E/DX2                !
 ! D175  D(32,33,35,36)       -179.9579         estimate D2E/DX2                !
 ! D176  D(32,33,35,37)         -0.2359         estimate D2E/DX2                !
 ! D177  D(34,33,35,36)         -0.1316         estimate D2E/DX2                !
 ! D178  D(34,33,35,37)        179.5903         estimate D2E/DX2                !
 ! D179  D(33,35,37,38)       -179.3644         estimate D2E/DX2                !
 ! D180  D(33,35,37,39)          0.1408         estimate D2E/DX2                !
 ! D181  D(36,35,37,38)          0.3561         estimate D2E/DX2                !
 ! D182  D(36,35,37,39)        179.8613         estimate D2E/DX2                !
 ! D183  D(35,37,39,40)       -178.6785         estimate D2E/DX2                !
 ! D184  D(35,37,39,41)         -0.1008         estimate D2E/DX2                !
 ! D185  D(38,37,39,40)          0.826          estimate D2E/DX2                !
 ! D186  D(38,37,39,41)        179.4037         estimate D2E/DX2                !
 ! D187  D(37,39,41,32)          0.1555         estimate D2E/DX2                !
 ! D188  D(37,39,41,42)       -178.6432         estimate D2E/DX2                !
 ! D189  D(40,39,41,32)        178.75           estimate D2E/DX2                !
 ! D190  D(40,39,41,42)         -0.0487         estimate D2E/DX2                !
 ! D191  D(4,43,44,45)          -5.13           estimate D2E/DX2                !
 ! D192  D(4,43,44,46)         177.1024         estimate D2E/DX2                !
 ! D193  D(52,43,44,45)        176.4046         estimate D2E/DX2                !
 ! D194  D(52,43,44,46)         -1.3629         estimate D2E/DX2                !
 ! D195  D(4,43,52,50)        -177.1401         estimate D2E/DX2                !
 ! D196  D(4,43,52,53)           3.7117         estimate D2E/DX2                !
 ! D197  D(44,43,52,50)          1.2929         estimate D2E/DX2                !
 ! D198  D(44,43,52,53)       -177.8554         estimate D2E/DX2                !
 ! D199  D(43,44,46,47)        179.4206         estimate D2E/DX2                !
 ! D200  D(43,44,46,48)          0.457          estimate D2E/DX2                !
 ! D201  D(45,44,46,47)          1.688          estimate D2E/DX2                !
 ! D202  D(45,44,46,48)       -177.2756         estimate D2E/DX2                !
 ! D203  D(44,46,48,49)        179.6704         estimate D2E/DX2                !
 ! D204  D(44,46,48,50)          0.526          estimate D2E/DX2                !
 ! D205  D(47,46,48,49)          0.7121         estimate D2E/DX2                !
 ! D206  D(47,46,48,50)       -178.4323         estimate D2E/DX2                !
 ! D207  D(46,48,50,51)        178.9342         estimate D2E/DX2                !
 ! D208  D(46,48,50,52)         -0.5972         estimate D2E/DX2                !
 ! D209  D(49,48,50,51)         -0.2113         estimate D2E/DX2                !
 ! D210  D(49,48,50,52)       -179.7427         estimate D2E/DX2                !
 ! D211  D(48,50,52,43)         -0.3146         estimate D2E/DX2                !
 ! D212  D(48,50,52,53)        178.8345         estimate D2E/DX2                !
 ! D213  D(51,50,52,43)       -179.8469         estimate D2E/DX2                !
 ! D214  D(51,50,52,53)         -0.6979         estimate D2E/DX2                !
 ! D215  D(3,54,55,56)          -3.8305         estimate D2E/DX2                !
 ! D216  D(3,54,55,57)         174.8496         estimate D2E/DX2                !
 ! D217  D(63,54,55,56)       -177.3854         estimate D2E/DX2                !
 ! D218  D(63,54,55,57)          1.2948         estimate D2E/DX2                !
 ! D219  D(3,54,63,61)        -174.4002         estimate D2E/DX2                !
 ! D220  D(3,54,63,64)           4.6505         estimate D2E/DX2                !
 ! D221  D(55,54,63,61)         -1.067          estimate D2E/DX2                !
 ! D222  D(55,54,63,64)        177.9837         estimate D2E/DX2                !
 ! D223  D(54,55,57,58)        179.8623         estimate D2E/DX2                !
 ! D224  D(54,55,57,59)         -0.6984         estimate D2E/DX2                !
 ! D225  D(56,55,57,58)         -1.4459         estimate D2E/DX2                !
 ! D226  D(56,55,57,59)        177.9934         estimate D2E/DX2                !
 ! D227  D(55,57,59,60)       -179.6118         estimate D2E/DX2                !
 ! D228  D(55,57,59,61)         -0.1309         estimate D2E/DX2                !
 ! D229  D(58,57,59,60)         -0.1754         estimate D2E/DX2                !
 ! D230  D(58,57,59,61)        179.3055         estimate D2E/DX2                !
 ! D231  D(57,59,61,62)       -179.161          estimate D2E/DX2                !
 ! D232  D(57,59,61,63)          0.3583         estimate D2E/DX2                !
 ! D233  D(60,59,61,62)          0.3196         estimate D2E/DX2                !
 ! D234  D(60,59,61,63)        179.8389         estimate D2E/DX2                !
 ! D235  D(59,61,63,54)          0.2454         estimate D2E/DX2                !
 ! D236  D(59,61,63,64)       -178.8052         estimate D2E/DX2                !
 ! D237  D(62,61,63,54)        179.7675         estimate D2E/DX2                !
 ! D238  D(62,61,63,64)          0.7169         estimate D2E/DX2                !
 ! D239  D(3,65,66,67)           1.1254         estimate D2E/DX2                !
 ! D240  D(3,65,66,68)        -179.8099         estimate D2E/DX2                !
 ! D241  D(74,65,66,67)       -178.9709         estimate D2E/DX2                !
 ! D242  D(74,65,66,68)          0.0938         estimate D2E/DX2                !
 ! D243  D(3,65,74,72)         179.9515         estimate D2E/DX2                !
 ! D244  D(3,65,74,75)          -0.9162         estimate D2E/DX2                !
 ! D245  D(66,65,74,72)          0.0463         estimate D2E/DX2                !
 ! D246  D(66,65,74,75)        179.1786         estimate D2E/DX2                !
 ! D247  D(65,66,68,69)       -179.8617         estimate D2E/DX2                !
 ! D248  D(65,66,68,70)         -0.1115         estimate D2E/DX2                !
 ! D249  D(67,66,68,69)         -0.7895         estimate D2E/DX2                !
 ! D250  D(67,66,68,70)        178.9606         estimate D2E/DX2                !
 ! D251  D(66,68,70,71)       -179.8159         estimate D2E/DX2                !
 ! D252  D(66,68,70,72)         -0.0113         estimate D2E/DX2                !
 ! D253  D(69,68,70,71)         -0.0665         estimate D2E/DX2                !
 ! D254  D(69,68,70,72)        179.7381         estimate D2E/DX2                !
 ! D255  D(68,70,72,73)       -179.3899         estimate D2E/DX2                !
 ! D256  D(68,70,72,74)          0.1514         estimate D2E/DX2                !
 ! D257  D(71,70,72,73)          0.4145         estimate D2E/DX2                !
 ! D258  D(71,70,72,74)        179.9558         estimate D2E/DX2                !
 ! D259  D(70,72,74,65)         -0.1689         estimate D2E/DX2                !
 ! D260  D(70,72,74,75)       -179.2927         estimate D2E/DX2                !
 ! D261  D(73,72,74,65)        179.3782         estimate D2E/DX2                !
 ! D262  D(73,72,74,75)          0.2544         estimate D2E/DX2                !
 --------------------------------------------------------------------------------
 Trust Radius=3.00D-01 FncErr=1.00D-07 GrdErr=1.00D-06
 Number of steps in this run=    522 maximum allowed number of steps=    522.
 GradGradGradGradGradGradGradGradGradGradGradGradGradGradGradGradGradGrad

 Leave Link  103 at Tue Nov  7 04:14:10 2023, MaxMem=  4294967296 cpu:         0.2
 (Enter /cluster/apps/gaussian/g09/l202.exe)
 Stoichiometry    C41H33F6NO2P2PdS
 Framework group  C1[X(C41H33F6NO2P2PdS)]
 Deg. of freedom   255
 Full point group                 C1      NOp   1
 Largest Abelian subgroup         C1      NOp   1
 Largest concise Abelian subgroup C1      NOp   1
                         Standard orientation:                         
 ---------------------------------------------------------------------
 Center     Atomic      Atomic             Coordinates (Angstroms)
 Number     Number       Type             X           Y           Z
 ---------------------------------------------------------------------
      1         46           0       -0.742709    0.040633   -0.306942
      2         16           0        0.686073    1.689559   -2.663353
      3         15           0       -2.125820   -1.066665    1.081993
      4         15           0       -1.441338    1.969689    0.826495
      5          8           0       -0.622998    2.358373   -2.606437
      6          8           0        1.879410    2.472688   -2.971863
      7          7           0        0.853952    0.908467   -1.249935
      8          6           0       -0.183980   -1.640451   -1.295832
      9          6           0       -1.110877   -2.445622   -1.971813
     10          1           0       -2.179842   -2.237136   -1.883327
     11          6           0       -0.720049   -3.515378   -2.769242
     12          1           0       -1.451722   -4.137769   -3.288652
     13          6           0        0.638325   -3.814375   -2.912144
     14          6           0        1.583428   -3.017631   -2.265241
     15          1           0        2.646221   -3.220130   -2.385913
     16          6           0        1.183246   -1.932074   -1.465054
     17          6           0        2.233586   -1.069753   -0.871318
     18          6           0        3.402528   -1.599305   -0.322150
     19          6           0        4.419334   -0.785224    0.169389
     20          6           0        4.267311    0.596493    0.133201
     21          6           0        3.093182    1.152857   -0.369081
     22          6           0        2.068846    0.340566   -0.872388
     23          6           0        0.562935    0.442624   -3.934493
     24          1           0        0.436268    0.973249   -4.887198
     25          1           0        1.494124   -0.138089   -3.938213
     26          6           0       -2.090873    1.345479    2.443967
     27          1           0       -1.224628    1.025042    3.046276
     28          1           0       -2.618896    2.136345    2.999363
     29          6           0       -3.008018    0.163225    2.156558
     30          1           0       -3.898542    0.497167    1.600370
     31          1           0       -3.359387   -0.322835    3.078968
     32          6           0       -0.314204    3.335847    1.202091
     33          6           0        0.080140    3.660438    2.505552
     34          1           0       -0.324600    3.119796    3.363770
     35          6           0        1.003275    4.682873    2.718024
     36          1           0        1.309328    4.933095    3.736588
     37          6           0        1.537129    5.378239    1.634483
     38          1           0        2.268419    6.172289    1.803322
     39          6           0        1.145972    5.053753    0.335910
     40          1           0        1.576227    5.579823   -0.518811
     41          6           0        0.224873    4.035776    0.113390
     42          1           0       -0.065179    3.766484   -0.905862
     43          6           0       -2.920701    2.731919    0.081033
     44          6           0       -3.415478    2.219982   -1.122876
     45          1           0       -2.859681    1.431109   -1.635885
     46          6           0       -4.580257    2.749053   -1.678263
     47          1           0       -4.957777    2.352493   -2.623571
     48          6           0       -5.246316    3.793331   -1.040149
     49          1           0       -6.155853    4.210603   -1.479095
     50          6           0       -4.743717    4.320396    0.151166
     51          1           0       -5.256407    5.150804    0.642388
     52          6           0       -3.582473    3.794168    0.709361
     53          1           0       -3.179169    4.220498    1.632551
     54          6           0       -3.445669   -2.119463    0.407137
     55          6           0       -4.487853   -1.508320   -0.304853
     56          1           0       -4.532593   -0.418788   -0.393147
     57          6           0       -5.458947   -2.286257   -0.928235
     58          1           0       -6.268722   -1.802285   -1.478980
     59          6           0       -5.390793   -3.678331   -0.859177
     60          1           0       -6.150170   -4.287980   -1.354292
     61          6           0       -4.347039   -4.289167   -0.167141
     62          1           0       -4.282089   -5.378640   -0.122034
     63          6           0       -3.374253   -3.515191    0.463121
     64          1           0       -2.547619   -3.998632    0.987606
     65          6           0       -1.196925   -2.106928    2.254639
     66          6           0       -1.833502   -2.701516    3.353911
     67          1           0       -2.906622   -2.562351    3.512265
     68          6           0       -1.105770   -3.489516    4.240538
     69          1           0       -1.607474   -3.951960    5.093763
     70          6           0        0.260867   -3.692479    4.036748
     71          1           0        0.828855   -4.314164    4.732989
     72          6           0        0.897785   -3.106653    2.945474
     73          1           0        1.964210   -3.267341    2.771708
     74          6           0        0.172505   -2.314288    2.056903
     75          1           0        0.663788   -1.861904    1.193386
     76          1           0       -0.292350   -0.208986   -3.719971
     77          1           0        0.949482   -4.644820   -3.510845
     78          1           0        2.971955    2.215966   -0.370487
     79          1           0        5.310696   -1.219313    0.571809
     80          6           0        5.376243    1.502083    0.700455
     81          6           0        3.613137   -3.120910   -0.212772
     82          9           0        5.111409    1.781053    1.994495
     83          9           0        5.424702    2.650989   -0.006770
     84          9           0        6.564732    0.868068    0.610907
     85          9           0        2.429733   -3.722523    0.032417
     86          9           0        4.469949   -3.385211    0.796444
     87          9           0        4.124352   -3.588869   -1.371294
 ---------------------------------------------------------------------
 Rotational constants (GHZ):      0.0574565      0.0482173      0.0363859
 Leave Link  202 at Tue Nov  7 04:14:10 2023, MaxMem=  4294967296 cpu:         0.0
 (Enter /cluster/apps/gaussian/g09/l301.exe)
 General basis read from cards:  (5D, 7F)
 Centers:       8      9     11     13     14     16     17     18     19     20
 Centers:      21     22     23     26     29     32     33     35     37     39
 Centers:      41     43     44     46     48     50     52     54     55     57
 Centers:      59     61     63     65     66     68     70     72     74     80
 Centers:      81     10     12     15     24     25     27     28     30     31
 Centers:      34     36     38     40     42     45     47     49     51     53
 Centers:      56     58     60     62     64     67     69     71     73     75
 Centers:      76     77     78     79      5      6      3      4      2     82
 Centers:      83     84     85     86     87      7
 def2svp
 ****
 Centers:       1
 def2tzvp
 ****
 ======================================================================================================
                                       Pseudopotential Parameters
 ======================================================================================================
  Center     Atomic      Valence      Angular      Power
  Number     Number     Electrons     Momentum     of R      Exponent        Coefficient   SO-Coeffient
 ======================================================================================================
    1         46           18
                                      G and up 
                                                     2        1.0000000        0.00000000    0.00000000
                                      S - G
                                                     2       12.4300000      240.22904000    0.00000000
                                                     2        6.1707590       35.17194300    0.00000000
                                      P - G
                                                     2       11.0800000      170.41727600    0.00000000
                                                     2        5.8295540       28.47213300    0.00000000
                                      D - G
                                                     2        9.5100000       69.01384500    0.00000000
                                                     2        4.1397810       11.75086200    0.00000000
                                      F - G
                                                     2       13.2700000      -31.92955400    0.00000000
                                                     2        6.6300000       -5.39821700    0.00000000
    2         16
                                   No pseudopotential on this center.
    3         15
                                   No pseudopotential on this center.
    4         15
                                   No pseudopotential on this center.
    5          8
                                   No pseudopotential on this center.
    6          8
                                   No pseudopotential on this center.
    7          7
                                   No pseudopotential on this center.
    8          6
                                   No pseudopotential on this center.
    9          6
                                   No pseudopotential on this center.
   10          1
                                   No pseudopotential on this center.
   11          6
                                   No pseudopotential on this center.
   12          1
                                   No pseudopotential on this center.
   13          6
                                   No pseudopotential on this center.
   14          6
                                   No pseudopotential on this center.
   15          1
                                   No pseudopotential on this center.
   16          6
                                   No pseudopotential on this center.
   17          6
                                   No pseudopotential on this center.
   18          6
                                   No pseudopotential on this center.
   19          6
                                   No pseudopotential on this center.
   20          6
                                   No pseudopotential on this center.
   21          6
                                   No pseudopotential on this center.
   22          6
                                   No pseudopotential on this center.
   23          6
                                   No pseudopotential on this center.
   24          1
                                   No pseudopotential on this center.
   25          1
                                   No pseudopotential on this center.
   26          6
                                   No pseudopotential on this center.
   27          1
                                   No pseudopotential on this center.
   28          1
                                   No pseudopotential on this center.
   29          6
                                   No pseudopotential on this center.
   30          1
                                   No pseudopotential on this center.
   31          1
                                   No pseudopotential on this center.
   32          6
                                   No pseudopotential on this center.
   33          6
                                   No pseudopotential on this center.
   34          1
                                   No pseudopotential on this center.
   35          6
                                   No pseudopotential on this center.
   36          1
                                   No pseudopotential on this center.
   37          6
                                   No pseudopotential on this center.
   38          1
                                   No pseudopotential on this center.
   39          6
                                   No pseudopotential on this center.
   40          1
                                   No pseudopotential on this center.
   41          6
                                   No pseudopotential on this center.
   42          1
                                   No pseudopotential on this center.
   43          6
                                   No pseudopotential on this center.
   44          6
                                   No pseudopotential on this center.
   45          1
                                   No pseudopotential on this center.
   46          6
                                   No pseudopotential on this center.
   47          1
                                   No pseudopotential on this center.
   48          6
                                   No pseudopotential on this center.
   49          1
                                   No pseudopotential on this center.
   50          6
                                   No pseudopotential on this center.
   51          1
                                   No pseudopotential on this center.
   52          6
                                   No pseudopotential on this center.
   53          1
                                   No pseudopotential on this center.
   54          6
                                   No pseudopotential on this center.
   55          6
                                   No pseudopotential on this center.
   56          1
                                   No pseudopotential on this center.
   57          6
                                   No pseudopotential on this center.
   58          1
                                   No pseudopotential on this center.
   59          6
                                   No pseudopotential on this center.
   60          1
                                   No pseudopotential on this center.
   61          6
                                   No pseudopotential on this center.
   62          1
                                   No pseudopotential on this center.
   63          6
                                   No pseudopotential on this center.
   64          1
                                   No pseudopotential on this center.
   65          6
                                   No pseudopotential on this center.
   66          6
                                   No pseudopotential on this center.
   67          1
                                   No pseudopotential on this center.
   68          6
                                   No pseudopotential on this center.
   69          1
                                   No pseudopotential on this center.
   70          6
                                   No pseudopotential on this center.
   71          1
                                   No pseudopotential on this center.
   72          6
                                   No pseudopotential on this center.
   73          1
                                   No pseudopotential on this center.
   74          6
                                   No pseudopotential on this center.
   75          1
                                   No pseudopotential on this center.
   76          1
                                   No pseudopotential on this center.
   77          1
                                   No pseudopotential on this center.
   78          1
                                   No pseudopotential on this center.
   79          1
                                   No pseudopotential on this center.
   80          6
                                   No pseudopotential on this center.
   81          6
                                   No pseudopotential on this center.
   82          9
                                   No pseudopotential on this center.
   83          9
                                   No pseudopotential on this center.
   84          9
                                   No pseudopotential on this center.
   85          9
                                   No pseudopotential on this center.
   86          9
                                   No pseudopotential on this center.
   87          9
                                   No pseudopotential on this center.
 ======================================================================================================
 Ernie: Thresh=  0.10000D-02 Tol=  0.10000D-05 Strict=F.
 There are  1018 symmetry adapted cartesian basis functions of A   symmetry.
 There are   959 symmetry adapted basis functions of A   symmetry.
   959 basis functions,  1666 primitive gaussians,  1018 cartesian basis functions
[...]
 0.00000006,0.00000111,-0.00000250,-0.00002675,0.00003685,0.00001521,0.
 00000764,0.00000348,0.00001195,-0.00005649,-0.00012828,0.00001092,-0.0
 0001703,-0.00001323,0.00001237,0.00001384,-0.00000379,0.00001656,0.000
 00629,-0.00001385,-0.00000105,0.00000150,0.00000490,0.00000789,-0.0000
 1490,0.00000139,0.00000108,-0.00000428,0.00000367,-0.00000508,0.000008
 63,0.00000851,0.00000674,-0.00000867,0.00000616,-0.00002862,-0.0000429
 3,0.00003642,-0.00001054,0.00000521,0.00000487,0.00004394,-0.00011616,
 -0.00015419,0.00005763,0.00004389,-0.00002756,-0.00000199,0.00000478,0
 .00000261,-0.00000192,-0.00003009,-0.00004740,-0.00000164,-0.00000155,
 -0.00001229,0.00001251,-0.00000133,0.00004647,-0.00001043,-0.00002560,
 -0.00004504,0.00000516,-0.00017822,-0.00014011,-0.00032719,-0.00004973
 ,0.00007529,0.00001869,0.00004518,0.00013851,-0.00001724,0.00011645,0.
 00005157,-0.00000090,0.00000653,-0.00000772,0.00004791,-0.00007757,0.0
 0006516,0.00007581,-0.00006504,-0.00008319,-0.00253739,0.00117010,0.00
 194490,0.00021077,-0.00147540,0.00072068,-0.09567432,-0.01591593,0.049
 18704,-0.00015826,0.00030696,-0.00038958,-0.00016132,0.00037814,-0.000
 06783,0.00024056,0.00061330,-0.00018573,0.01292777,-0.00738372,0.00140
 312,0.09476671,0.00013091,-0.00006459,0.00005283,-0.00012962,-0.000145
 12,0.00007731,0.00036599,-0.00002472,-0.00022345,0.00008497,-0.0001900
 4,-0.00002889,0.00003069,0.00011740,-0.00000008,-0.00002275,0.00015331
 ,-0.00002421,0.00046524,0.00051431,-0.00026947,0.00019523,0.00020809,0
 .00007220,-0.00010956,-0.00005116,-0.00005058,-0.00000217,-0.00000987,
 -0.00000736,-0.00002982,0.00007043,-0.00003966,-0.00001403,-0.00002513
 ,-0.00000962,-0.00021946,0.00020088,0.00001585,-0.00017523,-0.00006419
 ,0.00005146,0.00000388,-0.00012618,-0.00021177,0.00023134,-0.00008669,
 0.00013695,0.00127216,0.00017745,-0.00024074,0.00076902,0.00699240,0.0
 0241209,0.00291913,-0.00489643,-0.00138799,-0.00053129,0.00152243,-0.0
 0092722,0.00049232,0.00023999,-0.00014733,-0.00035871,-0.00029925,-0.0
 0012970,0.00002769,-0.00001109,-0.00006315,-0.00003405,0.00000821,-0.0
 0002156,0.00000919,-0.00002667,-0.00000342,-0.00006332,0.00002056,-0.0
 0001061,0.00002306,-0.00001654,0.00000709,-0.00001160,0.00000142,-0.00
 000888,-0.00002327,-0.00001312,0.00009042,-0.00002755,0.00000542,-0.00
 001101,0.00001964,0.00001865,0.00000115,-0.00003987,-0.00000930,-0.000
 00424,-0.00000870,0.00002178,-0.00000676,-0.00000997,-0.00002437,0.000
 01236,0.00000190,-0.00000944,0.00003712,-0.00002057,0.00000268,-0.0000
 2040,0.00000716,0.00002303,-0.00000542,-0.00001889,0.00000960,0.000000
 85,0.00000590,0.00001193,0.00000811,-0.00000335,0.00000364,0.00000100,
 0.00000741,0.00002988,-0.00002970,0.00000097,-0.00000910,-0.00000363,-
 0.00006201,0.00005333,-0.00002886,0.00000854,0.00001563,0.00000438,0.0
 0000530,-0.00000514,-0.00001332,-0.00000806,0.00000499,-0.00000378,0.0
 0000328,-0.00000292,-0.00000262,-0.00000019,0.00000015,0.00000013,-0.0
 0000201,-0.00000269,0.00000026,-0.00000867,0.00000515,-0.00000240,-0.0
 0000565,-0.00000318,-0.00000021,-0.00001207,-0.00001857,0.00003044,0.0
 0000160,-0.00000501,-0.00000470,-0.00007218,-0.00001550,0.00006492,0.0
 0002616,-0.00002675,-0.00000412,0.,0.00000249,0.00000113,-0.00001152,-
 0.00000572,0.00000475,-0.00000163,-0.00000398,0.00000678,-0.00000362,0
 .00000516,-0.00000428,0.00000107,-0.00000344,0.00000609,-0.00003269,-0
 .00000248,0.00000607,0.00000394,0.00001379,-0.00000021,0.00001833,0.00
 002357,-0.00004066,0.00000317,0.00003301,0.00001615,0.00000027,0.00012
 654,-0.00004285,-0.00003472,-0.00012083,-0.00008243,-0.00000285,-0.000
 02891,-0.00001455,-0.00006268,-0.00010493,0.00000194,-0.00001357,-0.00
 003565,0.00000209,-0.00015389,0.00004510,0.00019191,0.00001994,-0.0000
 2005,-0.00001306,0.00009415,0.00018639,-0.00038093,0.00005833,-0.00041
 039,0.00055737,-0.00018141,0.00009144,0.00022184,0.00044799,-0.0000412
 0,-0.00008350,0.00002749,0.00000478,-0.00002842,0.00001044,-0.00000575
 ,-0.00004238,0.00009895,0.00016418,-0.00000780,0.00214864,0.00126872,-
 0.00235447,-0.00098667,-0.00007787,0.00042975,-0.01795057,-0.10542943,
 0.06511932,0.00014168,0.00003204,-0.00008620,0.00027153,-0.00007686,-0
 .00018580,0.00034470,0.00012853,-0.00011342,-0.01406422,-0.06599961,0.
 05451254,0.01910642,0.15266309,-0.00017569,-0.00005603,-0.00009137,-0.
 00078730,0.00018636,0.00105248,0.00003538,-0.00041121,-0.00097565,-0.0
 0025730,-0.00013362,-0.00032753,0.00049404,0.00025470,-0.00022587,0.00
 023646,-0.00011917,-0.00023538,0.00141684,0.00011050,-0.00087882,-0.00
 053590,-0.00009188,-0.00022470,0.00033960,0.00020674,0.00011706,0.0000
 1669,0.00005564,-0.00005436,-0.00012698,0.00003756,-0.00004036,0.00003
 923,0.00008973,-0.00000462,0.00045794,0.00008474,0.00001620,-0.0001029
 1,-0.00032818,-0.00036603,-0.00007678,-0.00000122,0.00097622,-0.000005
 80,-0.00021984,0.00033266,0.00338454,-0.00595962,0.00018126,0.01568058
 ,0.01734276,-0.03004284,-0.00011003,0.00383981,-0.00077073,0.00089923,
 -0.00060774,0.00045745,0.00013050,-0.00023081,-0.00011164,-0.00041511,
 0.00114831,-0.00012081,0.00008405,-0.00002586,-0.00011780,-0.00000481,
 0.00000229,-0.00003474,-0.00000472,0.00003197,0.00005614,0.00015326,-0
 .00000279,0.00002308,0.00000641,-0.00001445,-0.00001291,0.00000884,0.0
 0003552,0.00004555,-0.00010035,0.00004081,0.00023061,-0.00004814,-0.00
 000562,-0.00001417,0.00008910,0.00003613,0.00002556,0.00011447,0.00005
 485,0.00010672,0.00007303,-0.00010030,-0.00005278,0.00001106,0.0000423
 8,-0.00002182,0.00003863,0.00005747,-0.00005220,0.00000364,-0.00002951
 ,-0.00000913,0.00001798,0.00000636,0.00002081,-0.00001079,-0.00000331,
 -0.00001255,-0.00001465,0.00001168,0.00005607,-0.00002257,0.00000199,-
 0.00000532,-0.00000193,-0.00002068,0.00004742,-0.00004460,0.00000827,-
 0.00000938,0.00014820,-0.00002380,0.00014587,-0.00003128,-0.00000887,-
 0.00000557,-0.00001951,-0.00003533,0.00001050,0.00002205,-0.00000529,0
 .00001791,-0.00000610,-0.00000292,-0.00000378,0.00000520,0.00000180,0.
 00000094,0.00000766,0.00000219,-0.00000509,0.00002285,-0.00000114,0.00
 000390,0.00001560,0.00000174,-0.00000366,0.00002388,0.00005154,-0.0000
 6590,-0.00001012,-0.00000659,0.00000040,-0.00004555,0.00010979,0.00026
 582,0.00001119,-0.00001504,0.00003532,-0.00001609,-0.00001371,-0.00000
 659,-0.00002468,-0.00001773,0.00003074,-0.00000161,-0.00000944,-0.0000
 0695,-0.00000375,-0.00000015,0.00001317,-0.00000596,-0.00000301,-0.000
 00680,0.00000956,-0.00000368,0.00001099,-0.00000956,-0.00000809,-0.000
 01752,0.00005440,0.00004222,-0.00001684,-0.00002911,0.00000482,-0.0000
 5748,-0.00010063,0.00015126,0.00046463,-0.00017191,-0.00015605,0.00003
 035,-0.00001825,-0.00001683,-0.00000778,-0.00000681,0.00002442,0.00002
 416,-0.00004351,-0.00003326,0.00001245,-0.00023393,-0.00028941,0.00016
 061,0.00001989,0.00012261,0.00010104,0.00098677,0.00072082,-0.00001187
 ,-0.00003132,0.00099521,-0.00003692,-0.00006795,-0.00031282,-0.0003066
 2,-0.00015987,-0.00000824,-0.00022309,-0.00003320,-0.00001554,0.000041
 62,-0.00003602,-0.00001170,0.00000564,-0.00015012,-0.00011131,0.000032
 14,0.00102157,-0.00251079,-0.00101429,0.00026670,0.00134250,-0.0016731
 3,0.05127415,0.05792382,-0.22998771,0.00015538,-0.00030336,0.00083917,
 0.00000309,-0.00029063,0.00030610,-0.00033208,-0.00058388,0.00038150,0
 .00326607,0.03762607,0.00049752,-0.04662438,-0.12437358,0.33401343,-0.
 00004584,0.00016165,0.00004639,0.00075472,0.00021700,-0.00182399,0.000
 02642,0.00040980,0.00000153,0.00037409,0.00030392,0.00009006,-0.000391
 16,-0.00034403,0.00041163,-0.00019137,-0.00020070,0.00061553,-0.001473
 16,-0.00067746,0.00126392,0.00074318,-0.00016321,0.00027595,0.00024083
 ,0.00012098,0.00026384,0.00002262,-0.00004597,0.00007122,0.00008129,-0
 .00032071,0.00011600,0.00005651,0.00001123,-0.00001216,0.00024769,-0.0
 0000381,0.00010126,-0.00077953,-0.00186160,0.00039528,-0.00160705,-0.0
 0131934,0.00302570,-0.00070633,-0.00014480,-0.00108972,-0.00126322,0.0
 0397560,-0.00220868,-0.04308596,-0.00423841,-0.02358894,-0.00122986,-0
 .00416543,0.00210955,-0.00131824,0.00159352,0.00247843,-0.00059246,0.0
 0065004,-0.00063751,0.00200344,0.00197790,0.00124039,-0.00008430,-0.00
 000852,0.00031304,0.00006159,-0.00001955,0.00008677,-0.00004024,0.0000
 0463,-0.00006574,-0.00004192,-0.00004294,0.00002078,0.00000871,0.00001
 670,0.00003632,-0.00000711,-0.00001630,-0.00002068,-0.00001166,-0.0001
 2476,-0.00005529,-0.00001740,0.00000571,0.00000459,-0.00001318,-0.0000
 0506,-0.00002069,-0.00008255,0.00001165,-0.00006116,-0.00007364,0.0000
 0659,0.00001186,0.00004587,0.00003035,0.00003511,-0.00009922,-0.000030
 20,0.00003045,0.00005383,-0.00001075,0.00004347,-0.00003397,-0.0000933
 6,-0.00003448,0.00004131,-0.00000144,0.00001099,-0.00000117,-0.0000451
 9,-0.00006421,0.00002129,-0.00000282,0.00001233,-0.00000857,0.00002449
 ,-0.00000760,0.00003773,0.00000736,0.00000854,-0.00006867,-0.00003123,
 -0.00005067,-0.00002218,0.00000014,0.00000727,0.00001689,0.00004169,-0
 .00002668,-0.00002005,0.00000976,-0.00002003,0.00000094,-0.00000477,0.
 00000964,-0.00001338,-0.00000296,0.00000173,-0.00001219,-0.00000498,0.
 00000638,-0.00000642,-0.00001370,0.00001390,-0.00001428,-0.00000059,-0
 .00000004,0.00000234,-0.00003246,0.00004963,0.00002656,0.00000915,0.00
 000608,-0.00003732,-0.00005441,-0.00006304,0.00004273,-0.00005783,-0.0
 0000642,0.00001444,0.00001937,-0.00001241,0.00001316,-0.00000027,-0.00
 000617,-0.00000474,-0.00000542,0.00000853,0.00001377,-0.00002812,0.000
 00975,-0.00000179,-0.00001350,0.00000584,-0.00002214,0.00001409,0.0000
 2999,0.00000931,-0.00001664,-0.00000042,-0.00001429,-0.00004900,0.0000
 3980,-0.00003660,0.00003228,-0.00001783,0.00004795,-0.00007715,-0.0001
 0615,-0.00000082,-0.00007454,-0.00009595,-0.00001598,-0.00001754,-0.00
 001143,-0.00005266,-0.00010982,-0.00001451,-0.00002149,-0.00002845,-0.
 00001668,-0.00008166,0.00002402,0.00015916,-0.00000561,-0.00000057,-0.
 00004344,0.00019185,0.00002300,-0.00020371,-0.00011299,0.00004600,0.00
 023020,-0.00010842,0.00001535,0.00028794,0.00020198,0.00021369,-0.0000
 4419,-0.00000825,0.00000282,-0.00000058,0.00009352,-0.00021691,0.00022
 294,0.00005199,-0.00013481,-0.00032816,-0.00058613,-0.00037054,-0.0012
 7653,0.00003766,-0.00224488,0.00110476,-0.22243451,-0.02790318,-0.0836
 3260,-0.00020650,0.00042838,-0.00043448,-0.00047199,0.00080162,-0.0000
 5497,0.00039839,0.00087047,-0.00016578,-0.00421415,-0.03199406,-0.0182
 9030,0.00571601,0.00561898,-0.02998607,0.27009373,0.00001934,-0.000085
 45,0.00002803,-0.00009956,-0.00027297,0.00000990,0.00034807,-0.0000584
 9,-0.00033154,0.00006278,-0.00017901,-0.00007321,0.00009557,0.00015786
 ,0.00001386,0.00003590,0.00019785,-0.00003687,0.00027275,0.00031653,-0
 .00019053,0.00012544,0.00010503,-0.00004117,-0.00006021,-0.00008535,-0
 .00000246,-0.00000909,0.00000859,0.00000519,-0.00003578,-0.00003667,-0
 .00014004,-0.00001418,-0.00004186,-0.00002207,-0.00045996,0.00022653,-
 0.00001096,-0.00027007,-0.00010280,0.00184457,-0.00148372,-0.00192228,
 0.00151035,0.00015474,-0.00008975,0.00010182,0.00099074,-0.00124344,0.
 00138752,0.00684904,0.01185744,0.00064317,-0.00136721,-0.00020524,0.00
 007293,-0.00060140,0.00077982,-0.00016642,0.00031119,0.00037659,-0.000
 40708,0.00008979,-0.00063068,-0.00023676,0.00000848,-0.00000597,-0.000
 02464,-0.00001808,0.00000599,-0.00000906,0.00000283,-0.00002476,0.0000
 0376,-0.00003838,0.00001638,-0.00000507,0.00002128,-0.00001571,0.00000
 598,-0.00000906,0.00000585,-0.00000329,-0.00003432,-0.00001056,0.00011
 087,-0.00003160,0.00000293,-0.00001203,0.00002875,0.00002214,0.0000033
 5,-0.00002562,-0.00000519,0.00001777,0.00000618,-0.00000201,-0.0000121
 5,-0.00000519,-0.00001027,0.00000670,0.00001447,0.00001192,0.00001471,
 -0.00000933,-0.00000270,-0.00001303,0.00000620,0.00002350,0.00000183,-
 0.00001274,0.00000629,-0.00000294,0.00000241,0.00000866,0.00001378,-0.
 00000712,0.00000403,0.00000088,0.00000266,0.00002334,-0.00001554,-0.00
 000536,-0.00000729,-0.00000533,-0.00003998,0.00004461,-0.00000723,0.00
 000095,0.00001315,0.00000397,0.00000296,-0.00000872,-0.00001206,-0.000
 00529,0.00000462,-0.00000159,0.00000215,-0.00000388,-0.00000246,-0.000
 00028,0.00000025,0.00000056,-0.00000152,-0.00000262,-0.00000029,-0.000
 00514,0.00000379,-0.00000063,-0.00000358,-0.00000278,-0.00000094,-0.00
 000776,-0.00001081,0.00002107,0.00000139,-0.00000532,-0.00000401,-0.00
 007420,-0.00000404,0.00009064,0.00002884,-0.00002861,-0.00000111,-0.00
 000189,0.00000039,-0.00000109,-0.00001190,-0.00000810,0.00000799,-0.00
 000208,-0.00000525,0.00000567,-0.00000424,0.00000440,-0.00000128,0.000
 00009,-0.00000440,0.00000480,-0.00002998,-0.00000069,0.00000685,0.0000
 0272,0.00001070,-0.00000263,0.00002138,0.00002370,-0.00003564,-0.00000
 339,0.00003107,0.00000637,-0.00000470,0.00015386,-0.00001196,-0.000050
 42,-0.00014520,-0.00009195,-0.00000373,-0.00003090,-0.00001605,-0.0000
 7378,-0.00011140,0.00003175,-0.00001447,-0.00003394,0.00000265,-0.0001
 4123,0.00007848,0.00017971,0.00001067,-0.00000472,-0.00000823,0.000123
 11,0.00018546,-0.00027494,0.00006906,-0.00024809,0.00046666,-0.0001968
 6,0.00007564,0.00019734,0.00044925,-0.00007983,-0.00016047,0.00001931,
 0.00000284,-0.00002169,-0.00000313,0.00000034,0.00001257,-0.00002584,0
 .00004031,0.00004651,-0.00019803,0.00014973,-0.00008192,-0.00043710,-0
 .00014088,0.00003994,-0.02747225,-0.08046218,-0.01767783,0.00010434,0.
 00002373,0.00008037,0.00006325,0.00002694,-0.00001446,0.00021134,0.000
 10815,-0.00001160,-0.04840880,-0.03897598,-0.04014307,0.01158543,0.013
 32827,0.01472669,0.05967476,0.09688910,-0.00004466,0.00017096,0.000014
 32,-0.00017546,0.00000643,-0.00048419,0.00013041,-0.00012144,-0.000755
 35,0.00004299,-0.00003551,-0.00015998,0.00007678,-0.00000082,0.0001356
 8,0.00007143,-0.00003766,0.00014429,-0.00038048,-0.00012124,0.00043316
 ,-0.00002960,0.00009034,0.00024252,0.00042740,0.00021715,0.00008078,0.
 00003953,0.00000520,-0.00002592,-0.00028296,0.00016857,0.00002377,0.00
 009506,0.00016442,0.00001722,0.00135675,0.00063104,0.00014245,-0.00132
 303,-0.00134494,-0.00320480,0.00198360,0.00267461,-0.00029874,0.000013
 68,0.00086884,0.00023959,-0.00121948,0.00125046,-0.00108548,-0.0019246
 8,-0.00164276,0.00964680,0.00056370,0.00062704,0.00060646,0.00000989,-
 0.00030956,-0.00008965,-0.00001694,-0.00025977,0.00010313,-0.00025245,
 -0.00007702,0.00026979,0.00000798,-0.00001467,0.00007478,0.00002913,-0
 .00000847,0.00002176,-0.00002293,0.00002166,0.00001408,0.00005926,-0.0
 0001487,0.00001858,0.00001629,-0.00001006,0.00000828,-0.00000158,0.000
 01763,0.00001823,-0.00007717,-0.00003370,0.00015732,-0.00004972,0.0000
 0135,-0.00001300,0.00005741,0.00002705,0.00000841,0.00003621,0.0000389
 3,0.00004819,0.00001310,-0.00004660,-0.00002687,0.00001737,0.00002279,
 0.00000500,-0.00001376,0.00001469,-0.00000897,0.00001325,-0.00001650,0
 .00000534,0.00000101,-0.00002164,0.00000133,0.00000424,-0.00000009,-0.
 00000251,-0.00000908,-0.00000600,0.00000709,-0.00000480,0.00000051,0.0
 0000120,-0.00000275,0.00000092,0.00001509,-0.00000611,0.00000413,-0.00
 000155,0.00005590,-0.00001386,0.00007031,-0.00002247,-0.00000142,0.000
 00264,-0.00000518,-0.00000295,-0.00000784,0.00000379,0.00000278,-0.000
 00035,-0.00000256,-0.00000409,0.00000030,-0.00000179,0.00000033,0.0000
 0124,-0.00000052,-0.00000111,-0.00000078,0.00000979,-0.00000476,0.0000
 0737,0.00000294,0.00000002,-0.00000243,0.00001584,0.00001662,-0.000015
 85,0.00000342,-0.00000210,0.00000108,-0.00006720,0.00004876,0.00017377
 ,0.00002685,-0.00004329,0.00002780,-0.00000642,-0.00000059,-0.00000848
 ,-0.00001946,-0.00001100,0.00002196,-0.00000450,-0.00001014,0.00000077
 ,0.00000556,-0.00001064,0.00001017,-0.00000440,-0.00000910,-0.00000040
 ,-0.00001062,-0.00000526,0.00002747,-0.00000087,-0.00000450,-0.0000134
 8,0.00004483,0.00002445,-0.00002353,-0.00002409,0.00003077,-0.00003807
 ,0.00000096,0.00016275,0.00014950,-0.00011355,-0.00020473,-0.00008443,
 -0.00001477,-0.00003516,-0.00002412,-0.00008180,-0.00010264,0.00004485
 ,-0.00003151,-0.00004049,0.00000434,-0.00017836,-0.00001713,0.00022156
 ,0.00001243,0.00003791,0.00002132,0.00041383,0.00035130,-0.00024117,0.
 00002379,0.00017571,0.00039274,-0.00016917,-0.00005258,0.00017755,0.00
 031082,0.00005600,-0.00025560,-0.00002851,-0.00000509,0.00002430,0.000
 02326,-0.00015385,-0.00002205,-0.00001896,-0.00004451,-0.00000857,0.00
 021294,-0.00059245,-0.00027448,0.00001248,-0.00017484,-0.00046492,-0.0
 7837253,-0.01723089,-0.12461158,0.00001522,0.00002930,0.00019316,-0.00
 007936,0.00009416,0.00013396,0.00000473,0.00005981,0.00010440,-0.02270
 302,-0.03147798,-0.00819749,-0.04775224,0.00764677,-0.07292013,0.14928
 565,0.03861825,0.19905558\\-0.00000296,-0.00000036,-0.00000482,0.00000
 460,0.00001350,-0.00000785,-0.00000112,-0.00000180,0.00000638,0.000001
 70,0.00000183,-0.00000749,-0.00000411,-0.00000272,0.00000405,0.0000036
 6,-0.00001084,0.00000210,-0.00000219,-0.00000302,-0.00000425,0.0000009
 4,0.00000672,0.00000147,0.00000152,-0.00000486,0.00000162,-0.00000126,
 -0.00000058,-0.00000032,-0.00000028,-0.00000123,0.00000104,-0.00000023
 ,-0.00000074,-0.00000047,0.00000131,-0.00000195,0.00000107,0.00000094,
 -0.00000032,0.00000307,-0.00000049,-0.00000080,-0.00000132,0.00000003,
 0.00000133,0.00000289,0.00000549,-0.00000638,-0.00000728,-0.00000436,-
 0.00000035,0.00000233,-0.00001235,0.00000687,0.00000065,0.00001342,-0.
 00000039,-0.00000458,-0.00000115,-0.00001689,0.00001016,-0.00001094,0.
 00001977,0.00000245,-0.00000023,0.00000133,0.00000168,0.00000064,-0.00
 000023,0.00000051,0.00000032,0.00000003,0.00000006,-0.00000496,0.00000
 147,0.00000556,0.00000137,0.00000084,-0.00000034,0.00000074,0.00000018
 ,-0.00000281,-0.00000355,-0.00000027,0.00000081,-0.00000063,0.00000044
 ,-0.00000047,-0.00000009,0.00000093,0.00000039,-0.00000123,0.00000307,
 0.00000984,0.00000164,-0.00000093,-0.00000333,0.00000056,0.00000012,0.
 00000024,0.00000117,-0.00000218,-0.00000421,0.00000111,0.00000045,0.00
 000084,0.00000131,0.00000174,0.00000376,0.00000050,0.00000048,-0.00000
 066,0.00000041,0.00000038,-0.00000077,0.00000075,0.00000143,-0.0000007
 5,0.00000015,-0.00000120,-0.00000319,-0.00000005,0.00000069,-0.0000007
 4,0.00000497,-0.00000104,0.00000415,-0.00000211,0.00000097,-0.00000013
 ,-0.00000029,0.00000088,0.00000003,-0.00000065,0.00000113,-0.00000071,
 -0.00000043,0.00000104,0.00000028,-0.00000044,0.00000071,0.00000019,-0
 .00000039,0.00000140,0.00000032,-0.00000089,0.00000171,-0.00000075,-0.
 00000014,0.00000138,-0.00000008,-0.00000015,0.00000070,0.00000010,-0.0
 0000027,0.00000116,0.00000005,0.00000286,-0.00000010,-0.00000543,-0.00
 000268,0.00000030,0.00000149,-0.00000071,-0.00000001,0.00000033,-0.000
 00162,0.00000039,-0.00000002,-0.00000122,0.00000029,0.00000026,-0.0000
 0099,-0.00000014,-0.00000010,-0.00000141,-0.00000031,0.00000012,-0.000
 00144,-0.00000073,0.00000061,-0.00000124,-0.00000064,0.00000029,-0.000
 00151,-0.00000109,0.00000129,-0.00000098,-0.00000020,-0.00000021,0.000
 00456,0.00000640,0.00000093,-0.00000160,-0.00000096,0.00000018,-0.0000
 0033,-0.00000063,0.00000010,-0.00000067,-0.00000158,-0.00000093,-0.000
 00080,-0.00000072,0.00000044,-0.00000031,-0.00000130,-0.00000033,-0.00
 000019,-0.00000008,0.00000010,-0.00000072,-0.00000134,0.00000106,0.000
 00002,-0.00000056,0.00000014,-0.00000193,-0.00000260,-0.00000155,0.000
 00005,-0.00000173,-0.00000048,-0.00000084,-0.00000006,-0.00000158,-0.0
 0000272,-0.00000111,-0.00000099,0.00000496,-0.00000031,-0.00000220,0.0
 0000303,-0.00000172,0.00000177,0.00000238,0.00000176,0.00000019,-0.000
 00334,-0.00000393,0.00000368,-0.00000110,-0.00000284,-0.00000821,-0.00
 000139,0.00000152,0.00000422,0.00000373,0.00000078,0.00000106,0.000005
 48,0.00000273,-0.00000239,0.00000311,-0.00000224,-0.00000157,0.0000082
 3,-0.00000282,-0.00000304\\\@


 ON A TOMBSTONE, "HERE LIES LESTER MOORE,
 FOUR SLUGS FROM A 44, NO LES, NO MORE".
 Job cpu time:       2 days  0 hours 50 minutes 55.7 seconds.
 File lengths (MBytes):  RWF=   8536 Int=      0 D2E=      0 Chk=     74 Scr=      1
 Normal termination of Gaussian 09 at Tue Nov  7 11:45:22 2023.
