 Entering Gaussian System, Link 0=/cluster/software/commercial/gaussian/g09/g09
 Input=dppBz_step1_opt.com
 Output=dppBz_step1_opt.log
 Initial command:
 /cluster/software/commercial/gaussian/g09/l1.exe "/cluster/scratch/rueppf/gaussian_job_dppBz_step1_opt_1749133756_PID1248642/Gau-1248665.inp" -scrdir="/cluster/scratch/rueppf/gaussian_job_dppBz_step1_opt_1749133756_PID1248642/"
 Entering Link 1 = /cluster/software/commercial/gaussian/g09/l1.exe PID=   1248678.
  
 Copyright (c) 1988,1990,1992,1993,1995,1998,2003,2009,2013,
            Gaussian, Inc.  All Rights Reserved.
  
 This is part of the Gaussian(R) 09 program.  It is based on
 the Gaussian(R) 03 system (copyright 2003, Gaussian, Inc.),
 the Gaussian(R) 98 system (copyright 1998, Gaussian, Inc.),
 the Gaussian(R) 94 system (copyright 1995, Gaussian, Inc.),
 the Gaussian 92(TM) system (copyright 1992, Gaussian, Inc.),
 the Gaussian 90(TM) system (copyright 1990, Gaussian, Inc.),
 the Gaussian 88(TM) system (copyright 1988, Gaussian, Inc.),
 the Gaussian 86(TM) system (copyright 1986, Carnegie Mellon
 University), and the Gaussian 82(TM) system (copyright 1983,
 Carnegie Mellon University). Gaussian is a federally registered
 trademark of Gaussian, Inc.
  
 This software contains proprietary and confidential information,
 including trade secrets, belonging to Gaussian, Inc.
  
 This software is provided under written license and may be
 used, copied, transmitted, or stored only in accord with that
 written license.
  
 The following legend is applicable only to US Government
 contracts under FAR:
  
                    RESTRICTED RIGHTS LEGEND
  
 Use, reproduction and disclosure by the US Government is
 subject to restrictions as set forth in subparagraphs (a)
 and (c) of the Commercial Computer Software - Restricted
 Rights clause in FAR 52.227-19.
  
 Gaussian, Inc.
 340 Quinnipiac St., Bldg. 40, Wallingford CT 06492
  
  
 ---------------------------------------------------------------
 Warning -- This program may not be used in any manner that
 competes with the business of Gaussian, Inc. or will provide
 assistance to any competitor of Gaussian, Inc.  The licensee
 of this program is prohibited from giving any competitor of
 Gaussian, Inc. access to this program.  By using this program,
 the user acknowledges that Gaussian, Inc. is engaged in the
 business of creating and licensing software in the field of
 computational chemistry and represents and warrants to the
 licensee that it is not a competitor of Gaussian, Inc. and that
 it will not use this program in any manner prohibited above.
 ---------------------------------------------------------------
  

 Cite this work as:
 Gaussian 09, Revision D.01,
 M. J. Frisch, G. W. Trucks, H. B. Schlegel, G. E. Scuseria, 
 M. A. Robb, J. R. Cheeseman, G. Scalmani, V. Barone, B. Mennucci, 
 G. A. Petersson, H. Nakatsuji, M. Caricato, X. Li, H. P. Hratchian, 
 A. F. Izmaylov, J. Bloino, G. Zheng, J. L. Sonnenberg, M. Hada, 
 M. Ehara, K. Toyota, R. Fukuda, J. Hasegawa, M. Ishida, T. Nakajima, 
 Y. Honda, O. Kitao, H. Nakai, T. Vreven, J. A. Montgomery, Jr., 
 J. E. Peralta, F. Ogliaro, M. Bearpark, J. J. Heyd, E. Brothers, 
 K. N. Kudin, V. N. Staroverov, T. Keith, R. Kobayashi, J. Normand, 
 K. Raghavachari, A. Rendell, J. C. Burant, S. S. Iyengar, J. Tomasi, 
 M. Cossi, N. Rega, J. M. Millam, M. Klene, J. E. Knox, J. B. Cross, 
 V. Bakken, C. Adamo, J. Jaramillo, R. Gomperts, R. E. Stratmann, 
 O. Yazyev, A. J. Austin, R. Cammi, C. Pomelli, J. W. Ochterski, 
 R. L. Martin, K. Morokuma, V. G. Zakrzewski, G. A. Voth, 
 P. Salvador, J. J. Dannenberg, S. Dapprich, A. D. Daniels, 
 O. Farkas, J. B. Foresman, J. V. Ortiz, J. Cioslowski, 
 and D. J. Fox, Gaussian, Inc., Wallingford CT, 2013.
 
 ******************************************
 Gaussian 09:  ES64L-G09RevD.01 24-Apr-2013
                 5-Jun-2025 
 ******************************************
 %nprocshared=8
 Will use up to    8 processors via shared memory.
 %mem=32GB
 ----------------------------------------------------------------------
 #p opt freq=noraman pbe1pbe genecp temperature=298 integral(grid=ultra
 fine) empiricaldispersion=gd3bj
 ----------------------------------------------------------------------
 1/14=-1,18=20,19=15,26=4,38=1,112=298000/1,3;
 2/9=110,12=2,17=6,18=5,40=1/2;
 3/5=7,11=2,16=1,17=8,25=1,30=1,71=1,74=-13,75=-5,124=41/1,2,3;
 4//1;
 5/5=2,38=5/2;
 6/7=2,8=2,9=2,10=2,28=1/1;
 7//1,2,3,16;
 1/14=-1,18=20,19=15,26=4/3(2);
 2/9=110/2;
 99//99;
 2/9=110/2;
 3/5=7,6=1,11=2,16=1,17=8,25=1,30=1,71=1,74=-13,75=-5,82=7,124=41/1,2,3;
 4/5=5,16=3,69=1/1;
 5/5=2,38=5/2;
 7//1,2,3,16;
 1/14=-1,18=20,19=15,26=4/3(-5);
 2/9=110/2;
 6/7=2,8=2,9=2,10=2,19=2,28=1/1;
 99/9=1/99;
 Leave Link    1 at Thu Jun  5 16:29:16 2025, MaxMem=  4294967296 cpu:         0.0
 (Enter /cluster/software/commercial/gaussian/g09/l101.exe)
 -----
 title
 -----
 Symbolic Z-matrix:
 Charge =  0 Multiplicity = 1
 Pd                   -0.00277   0.04747  -0.1738 
 Cl                    0.22219   0.14101  -3.58753 
 S                    -1.06039  -2.19088  -2.18784 
 P                     1.17527   1.66545   0.85519 
 P                     1.87315  -1.26062   0.42621 
 F                    -5.11075   0.62812   1.27555 
 F                    -5.91726  -1.72544   2.20491 
 F                    -4.51391  -3.98573   1.64418 
 F                    -2.25996  -3.84835   0.21009 
 O                     0.31083  -2.68901  -2.27539 
 O                    -2.18959  -3.06354  -2.49746 
 O                    -4.50908   3.88475  -2.02107 
 N                    -1.27151  -1.4536   -0.7639 
 C                    -1.51025   1.30391  -0.66568 
 C                    -1.23814   2.52647  -1.30021 
 H                    -0.20391   2.8408   -1.46124 
 C                    -2.24074   3.37636  -1.74202 
 H                    -2.01177   4.32732  -2.22708 
 C                    -3.58036   3.01463  -1.56429 
 C                    -5.86079   3.57009  -1.84925 
 H                    -6.14218   2.64648  -2.38643 
 H                    -6.43581   4.40812  -2.26397 
 H                    -6.12385   3.44823  -0.78319 
 C                    -3.88056   1.80418  -0.94544 
 H                    -4.9175    1.50179  -0.81821 
 C                    -2.85832   0.94787  -0.48539 
 C                    -3.25538  -0.33729   0.13384 
 C                    -4.39288  -0.44554   0.94077 
 C                    -4.8336   -1.66555   1.4442 
 C                    -4.11706  -2.82105   1.15621 
 C                    -2.95563  -2.73649   0.39642 
 C                    -2.50356  -1.51248  -0.1153 
 C                    -1.20306  -0.89219  -3.45366 
 H                    -1.34283  -1.4282   -4.40115 
 H                    -2.08086  -0.27963  -3.20901 
 C                     2.37558  -0.52155   2.03325 
 C                     2.01959   0.82414   2.24818 
 C                     1.77008  -3.03939   0.74902 
 C                     2.83783  -3.908     0.50014 
 H                     3.76719  -3.52341   0.07316 
 C                     2.70278  -5.26538   0.78317 
 H                     3.53406  -5.94585   0.58427 
 C                     1.50597  -5.75607   1.30513 
 H                     1.39936  -6.82344   1.51308 
 C                     0.43893  -4.89094   1.54456 
 H                    -0.51058  -5.27413   1.92351 
 C                     0.56908  -3.53394   1.26659 
 H                    -0.27185  -2.85592   1.42118 
 C                     3.31753  -1.01551  -0.65693 
 C                     3.1703   -1.35     -2.01091 
 H                     2.23185  -1.79001  -2.36136 
 C                     4.21751  -1.10836  -2.89609 
 H                     4.09926  -1.37031  -3.9502 
 C                     5.40286  -0.52627  -2.4457 
 H                     6.21759  -0.33006  -3.14713 
 C                     5.54603  -0.19002  -1.10074 
 H                     6.46915   0.27295  -0.74456 
 C                     4.50777  -0.43604  -0.20461 
 H                     4.62059  -0.16113   0.84636 
 C                     2.5533    2.36991  -0.10663 
 C                     2.56895   2.16505  -1.49011 
 H                     1.75412   1.60826  -1.95918 
 C                     3.63648   2.63233  -2.25288 
 H                     3.64835   2.45422  -3.33004 
 C                     4.69173   3.30274  -1.63818 
 H                     5.53254   3.66222  -2.23612 
 C                     4.68511   3.50143  -0.25686 
 H                     5.51843   4.01611   0.22719 
 C                     3.62245   3.03204   0.51007 
 H                     3.6351    3.16559   1.59474 
 C                     0.25847   3.04897   1.59206 
 C                    -0.92593   2.73419   2.27235 
 H                    -1.2511    1.69254   2.34111 
 C                    -1.70496   3.74726   2.81819 
 H                    -2.63256   3.49634   3.33719 
 C                    -1.31529   5.08067   2.67774 
 H                    -1.93608   5.87711   3.09476 
 C                    -0.14505   5.39696   1.9923 
 H                     0.15449   6.44034   1.86992 
 C                     0.64381   4.38386   1.44676 
 H                     1.54977   4.63725   0.89235 
 C                     2.31984   1.44455   3.46165 
 C                     3.03712  -1.22737   3.03934 
 C                     3.33925  -0.60118   4.24896 
 C                     2.97964   0.72904   4.46105 
 H                     2.01476   2.48035   3.6332 
 H                     3.20215   1.2105    5.41613 
 H                     3.29719  -2.27707   2.88055 
 H                     3.84675  -1.16209   5.03719 
 
 NAtoms=     89 NQM=       89 NQMF=       0 NMMI=      0 NMMIF=      0
                NMic=       0 NMicF=      0.
                    Isotopes and Nuclear Properties:
 (Nuclear quadrupole moments (NQMom) in fm**2, nuclear magnetic moments (NMagM)
  in nuclear magnetons)

  Atom         1           2           3           4           5           6           7           8           9          10
 IAtWgt=         106          35          32          31          31          19          19          19          19          16
 AtmWgt= 105.9032000  34.9688527  31.9720718  30.9737634  30.9737634  18.9984032  18.9984032  18.9984032  18.9984032  15.9949146
 NucSpn=           0           3           0           1           1           1           1           1           1           0
 AtZEff=   0.0000000   0.0000000   0.0000000   0.0000000   0.0000000   0.0000000   0.0000000   0.0000000   0.0000000   0.0000000
 NQMom=    0.0000000  -8.1650000   0.0000000   0.0000000   0.0000000   0.0000000   0.0000000   0.0000000   0.0000000   0.0000000
 NMagM=    0.0000000   0.8218740   0.0000000   1.1316000   1.1316000   2.6288670   2.6288670   2.6288670   2.6288670   0.0000000
 AtZNuc=  46.0000000  17.0000000  16.0000000  15.0000000  15.0000000   9.0000000   9.0000000   9.0000000   9.0000000   8.0000000

  Atom        11          12          13          14          15          16          17          18          19          20
 IAtWgt=          16          16          14          12          12           1          12           1          12          12
 AtmWgt=  15.9949146  15.9949146  14.0030740  12.0000000  12.0000000   1.0078250  12.0000000   1.0078250  12.0000000  12.0000000
 NucSpn=           0           0           2           0           0           1           0           1           0           0
 AtZEff=   0.0000000   0.0000000   0.0000000   0.0000000   0.0000000   0.0000000   0.0000000   0.0000000   0.0000000   0.0000000
 NQMom=    0.0000000   0.0000000   2.0440000   0.0000000   0.0000000   0.0000000   0.0000000   0.0000000   0.0000000   0.0000000
 NMagM=    0.0000000   0.0000000   0.4037610   0.0000000   0.0000000   2.7928460   0.0000000   2.7928460   0.0000000   0.0000000
 AtZNuc=   8.0000000   8.0000000   7.0000000   6.0000000   6.0000000   1.0000000   6.0000000   1.0000000   6.0000000   6.0000000

  Atom        21          22          23          24          25          26          27          28          29          30
 IAtWgt=           1           1           1          12           1          12          12          12          12          12
 AtmWgt=   1.0078250   1.0078250   1.0078250  12.0000000   1.0078250  12.0000000  12.0000000  12.0000000  12.0000000  12.0000000
 NucSpn=           1           1           1           0           1           0           0           0           0           0
 AtZEff=   0.0000000   0.0000000   0.0000000   0.0000000   0.0000000   0.0000000   0.0000000   0.0000000   0.0000000   0.0000000
 NQMom=    0.0000000   0.0000000   0.0000000   0.0000000   0.0000000   0.0000000   0.0000000   0.0000000   0.0000000   0.0000000
 NMagM=    2.7928460   2.7928460   2.7928460   0.0000000   2.7928460   0.0000000   0.0000000   0.0000000   0.0000000   0.0000000
 AtZNuc=   1.0000000   1.0000000   1.0000000   6.0000000   1.0000000   6.0000000   6.0000000   6.0000000   6.0000000   6.0000000

  Atom        31          32          33          34          35          36          37          38          39          40
 IAtWgt=          12          12          12           1           1          12          12          12          12           1
 AtmWgt=  12.0000000  12.0000000  12.0000000   1.0078250   1.0078250  12.0000000  12.0000000  12.0000000  12.0000000   1.0078250
 NucSpn=           0           0           0           1           1           0           0           0           0           1
 AtZEff=   0.0000000   0.0000000   0.0000000   0.0000000   0.0000000   0.0000000   0.0000000   0.0000000   0.0000000   0.0000000
 NQMom=    0.0000000   0.0000000   0.0000000   0.0000000   0.0000000   0.0000000   0.0000000   0.0000000   0.0000000   0.0000000
 NMagM=    0.0000000   0.0000000   0.0000000   2.7928460   2.7928460   0.0000000   0.0000000   0.0000000   0.0000000   2.7928460
 AtZNuc=   6.0000000   6.0000000   6.0000000   1.0000000   1.0000000   6.0000000   6.0000000   6.0000000   6.0000000   1.0000000

  Atom        41          42          43          44          45          46          47          48          49          50
 IAtWgt=          12           1          12           1          12           1          12           1          12          12
 AtmWgt=  12.0000000   1.0078250  12.0000000   1.0078250  12.0000000   1.0078250  12.0000000   1.0078250  12.0000000  12.0000000
 NucSpn=           0           1           0           1           0           1           0           1           0           0
 AtZEff=   0.0000000   0.0000000   0.0000000   0.0000000   0.0000000   0.0000000   0.0000000   0.0000000   0.0000000   0.0000000
 NQMom=    0.0000000   0.0000000   0.0000000   0.0000000   0.0000000   0.0000000   0.0000000   0.0000000   0.0000000   0.0000000
 NMagM=    0.0000000   2.7928460   0.0000000   2.7928460   0.0000000   2.7928460   0.0000000   2.7928460   0.0000000   0.0000000
 AtZNuc=   6.0000000   1.0000000   6.0000000   1.0000000   6.0000000   1.0000000   6.0000000   1.0000000   6.0000000   6.0000000

  Atom        51          52          53          54          55          56          57          58          59          60
 IAtWgt=           1          12           1          12           1          12           1          12           1          12
 AtmWgt=   1.0078250  12.0000000   1.0078250  12.0000000   1.0078250  12.0000000   1.0078250  12.0000000   1.0078250  12.0000000
 NucSpn=           1           0           1           0           1           0           1           0           1           0
 AtZEff=   0.0000000   0.0000000   0.0000000   0.0000000   0.0000000   0.0000000   0.0000000   0.0000000   0.0000000   0.0000000
 NQMom=    0.0000000   0.0000000   0.0000000   0.0000000   0.0000000   0.0000000   0.0000000   0.0000000   0.0000000   0.0000000
 NMagM=    2.7928460   0.0000000   2.7928460   0.0000000   2.7928460   0.0000000   2.7928460   0.0000000   2.7928460   0.0000000
 AtZNuc=   1.0000000   6.0000000   1.0000000   6.0000000   1.0000000   6.0000000   1.0000000   6.0000000   1.0000000   6.0000000

  Atom        61          62          63          64          65          66          67          68          69          70
 IAtWgt=          12           1          12           1          12           1          12           1          12           1
 AtmWgt=  12.0000000   1.0078250  12.0000000   1.0078250  12.0000000   1.0078250  12.0000000   1.0078250  12.0000000   1.0078250
 NucSpn=           0           1           0           1           0           1           0           1           0           1
 AtZEff=   0.0000000   0.0000000   0.0000000   0.0000000   0.0000000   0.0000000   0.0000000   0.0000000   0.0000000   0.0000000
 NQMom=    0.0000000   0.0000000   0.0000000   0.0000000   0.0000000   0.0000000   0.0000000   0.0000000   0.0000000   0.0000000
 NMagM=    0.0000000   2.7928460   0.0000000   2.7928460   0.0000000   2.7928460   0.0000000   2.7928460   0.0000000   2.7928460
 AtZNuc=   6.0000000   1.0000000   6.0000000   1.0000000   6.0000000   1.0000000   6.0000000   1.0000000   6.0000000   1.0000000

  Atom        71          72          73          74          75          76          77          78          79          80
 IAtWgt=          12          12           1          12           1          12           1          12           1          12
 AtmWgt=  12.0000000  12.0000000   1.0078250  12.0000000   1.0078250  12.0000000   1.0078250  12.0000000   1.0078250  12.0000000
 NucSpn=           0           0           1           0           1           0           1           0           1           0
 AtZEff=   0.0000000   0.0000000   0.0000000   0.0000000   0.0000000   0.0000000   0.0000000   0.0000000   0.0000000   0.0000000
 NQMom=    0.0000000   0.0000000   0.0000000   0.0000000   0.0000000   0.0000000   0.0000000   0.0000000   0.0000000   0.0000000
 NMagM=    0.0000000   0.0000000   2.7928460   0.0000000   2.7928460   0.0000000   2.7928460   0.0000000   2.7928460   0.0000000
 AtZNuc=   6.0000000   6.0000000   1.0000000   6.0000000   1.0000000   6.0000000   1.0000000   6.0000000   1.0000000   6.0000000

  Atom        81          82          83          84          85          86          87          88          89
 IAtWgt=           1          12          12          12          12           1           1           1           1
 AtmWgt=   1.0078250  12.0000000  12.0000000  12.0000000  12.0000000   1.0078250   1.0078250   1.0078250   1.0078250
 NucSpn=           1           0           0           0           0           1           1           1           1
 AtZEff=   0.0000000   0.0000000   0.0000000   0.0000000   0.0000000   0.0000000   0.0000000   0.0000000   0.0000000
 NQMom=    0.0000000   0.0000000   0.0000000   0.0000000   0.0000000   0.0000000   0.0000000   0.0000000   0.0000000
 NMagM=    2.7928460   0.0000000   0.0000000   0.0000000   0.0000000   2.7928460   2.7928460   2.7928460   2.7928460
 AtZNuc=   1.0000000   6.0000000   6.0000000   6.0000000   6.0000000   1.0000000   1.0000000   1.0000000   1.0000000
 Leave Link  101 at Thu Jun  5 16:29:16 2025, MaxMem=  4294967296 cpu:         0.1
 (Enter /cluster/software/commercial/gaussian/g09/l103.exe)

 GradGradGradGradGradGradGradGradGradGradGradGradGradGradGradGradGradGrad
 Berny optimization.
 Initialization pass.
                           ----------------------------
                           !    Initial Parameters    !
                           ! (Angstroms and Degrees)  !
 --------------------------                            --------------------------
 ! Name  Definition              Value          Derivative Info.                !
 --------------------------------------------------------------------------------
 ! R1    R(1,4)                  2.2504         estimate D2E/DX2                !
 ! R2    R(1,5)                  2.3644         estimate D2E/DX2                !
 ! R3    R(1,13)                 2.0521         estimate D2E/DX2                !
 ! R4    R(1,14)                 2.0231         estimate D2E/DX2                !
 ! R5    R(2,33)                 1.7654         estimate D2E/DX2                !
 ! R6    R(3,10)                 1.4615         estimate D2E/DX2                !
 ! R7    R(3,11)                 1.4603         estimate D2E/DX2                !
 ! R8    R(3,13)                 1.6173         estimate D2E/DX2                !
 ! R9    R(3,33)                 1.8191         estimate D2E/DX2                !
 ! R10   R(4,37)                 1.8333         estimate D2E/DX2                !
 ! R11   R(4,60)                 1.8222         estimate D2E/DX2                !
 ! R12   R(4,71)                 1.8159         estimate D2E/DX2                !
 ! R13   R(5,36)                 1.8388         estimate D2E/DX2                !
 ! R14   R(5,38)                 1.8108         estimate D2E/DX2                !
 ! R15   R(5,49)                 1.822          estimate D2E/DX2                !
 ! R16   R(6,28)                 1.3342         estimate D2E/DX2                !
 ! R17   R(7,29)                 1.3254         estimate D2E/DX2                !
 ! R18   R(8,30)                 1.3237         estimate D2E/DX2                !
 ! R19   R(9,31)                 1.3247         estimate D2E/DX2                !
 ! R20   R(12,19)                1.3521         estimate D2E/DX2                !
 ! R21   R(12,20)                1.3984         estimate D2E/DX2                !
 ! R22   R(13,32)                1.3936         estimate D2E/DX2                !
 ! R23   R(14,15)                1.404          estimate D2E/DX2                !
 ! R24   R(14,26)                1.4059         estimate D2E/DX2                !
 ! R25   R(15,16)                1.0929         estimate D2E/DX2                !
 ! R26   R(15,17)                1.3866         estimate D2E/DX2                !
 ! R27   R(17,18)                1.0918         estimate D2E/DX2                !
 ! R28   R(17,19)                1.3989         estimate D2E/DX2                !
 ! R29   R(19,24)                1.3922         estimate D2E/DX2                !
 ! R30   R(20,21)                1.1049         estimate D2E/DX2                !
 ! R31   R(20,22)                1.0977         estimate D2E/DX2                !
 ! R32   R(20,23)                1.1048         estimate D2E/DX2                !
 ! R33   R(24,25)                1.0876         estimate D2E/DX2                !
 ! R34   R(24,26)                1.4106         estimate D2E/DX2                !
 ! R35   R(26,27)                1.4808         estimate D2E/DX2                !
 ! R36   R(27,28)                1.3988         estimate D2E/DX2                !
 ! R37   R(27,32)                1.4172         estimate D2E/DX2                !
 ! R38   R(28,29)                1.3914         estimate D2E/DX2                !
 ! R39   R(29,30)                1.3898         estimate D2E/DX2                !
 ! R40   R(30,31)                1.3904         estimate D2E/DX2                !
 ! R41   R(31,32)                1.4016         estimate D2E/DX2                !
 ! R42   R(33,34)                1.0975         estimate D2E/DX2                !
 ! R43   R(33,35)                1.098          estimate D2E/DX2                !
 ! R44   R(36,37)                1.4085         estimate D2E/DX2                !
 ! R45   R(36,83)                1.3957         estimate D2E/DX2                !
 ! R46   R(37,82)                1.3955         estimate D2E/DX2                !
 ! R47   R(38,39)                1.3988         estimate D2E/DX2                !
 ! R48   R(38,47)                1.3982         estimate D2E/DX2                !
 ! R49   R(39,40)                1.0927         estimate D2E/DX2                !
 ! R50   R(39,41)                1.3931         estimate D2E/DX2                !
 ! R51   R(41,42)                1.0925         estimate D2E/DX2                !
 ! R52   R(41,43)                1.3948         estimate D2E/DX2                !
 ! R53   R(43,44)                1.0926         estimate D2E/DX2                !
 ! R54   R(43,45)                1.3944         estimate D2E/DX2                !
 ! R55   R(45,46)                1.0918         estimate D2E/DX2                !
 ! R56   R(45,47)                1.3913         estimate D2E/DX2                !
 ! R57   R(47,48)                1.0912         estimate D2E/DX2                !
 ! R58   R(49,50)                1.4024         estimate D2E/DX2                !
 ! R59   R(49,58)                1.3989         estimate D2E/DX2                !
 ! R60   R(50,51)                1.0941         estimate D2E/DX2                !
 ! R61   R(50,52)                1.3923         estimate D2E/DX2                !
 ! R62   R(52,53)                1.0926         estimate D2E/DX2                !
 ! R63   R(52,54)                1.3953         estimate D2E/DX2                !
 ! R64   R(54,55)                1.0928         estimate D2E/DX2                !
 ! R65   R(54,56)                1.3937         estimate D2E/DX2                !
 ! R66   R(56,57)                1.0924         estimate D2E/DX2                !
 ! R67   R(56,58)                1.3934         estimate D2E/DX2                !
 ! R68   R(58,59)                1.0922         estimate D2E/DX2                !
 ! R69   R(60,61)                1.3987         estimate D2E/DX2                !
 ! R70   R(60,69)                1.4006         estimate D2E/DX2                !
 ! R71   R(61,62)                1.0927         estimate D2E/DX2                !
 ! R72   R(61,63)                1.3928         estimate D2E/DX2                !
 ! R73   R(63,64)                1.0919         estimate D2E/DX2                !
 ! R74   R(63,65)                1.3931         estimate D2E/DX2                !
 ! R75   R(65,66)                1.0926         estimate D2E/DX2                !
 ! R76   R(65,67)                1.3955         estimate D2E/DX2                !
 ! R77   R(67,68)                1.0925         estimate D2E/DX2                !
 ! R78   R(67,69)                1.392          estimate D2E/DX2                !
 ! R79   R(69,70)                1.0929         estimate D2E/DX2                !
 ! R80   R(71,72)                1.4017         estimate D2E/DX2                !
 ! R81   R(71,80)                1.397          estimate D2E/DX2                !
 ! R82   R(72,73)                1.0934         estimate D2E/DX2                !
 ! R83   R(72,74)                1.3897         estimate D2E/DX2                !
 ! R84   R(74,75)                1.0921         estimate D2E/DX2                !
 ! R85   R(74,76)                1.3963         estimate D2E/DX2                !
 ! R86   R(76,77)                1.0925         estimate D2E/DX2                !
 ! R87   R(76,78)                1.3926         estimate D2E/DX2                !
 ! R88   R(78,79)                1.0924         estimate D2E/DX2                !
 ! R89   R(78,80)                1.3951         estimate D2E/DX2                !
 ! R90   R(80,81)                1.0919         estimate D2E/DX2                !
 ! R91   R(82,85)                1.395          estimate D2E/DX2                !
 ! R92   R(82,86)                1.0933         estimate D2E/DX2                !
 ! R93   R(83,84)                1.3952         estimate D2E/DX2                !
 ! R94   R(83,88)                1.093          estimate D2E/DX2                !
 ! R95   R(84,85)                1.3942         estimate D2E/DX2                !
 ! R96   R(84,89)                1.0925         estimate D2E/DX2                !
 ! R97   R(85,87)                1.0925         estimate D2E/DX2                !
 ! A1    A(4,1,5)               82.3225         estimate D2E/DX2                !
 ! A2    A(4,1,14)              93.1362         estimate D2E/DX2                !
 ! A3    A(5,1,13)              99.1387         estimate D2E/DX2                !
 ! A4    A(13,1,14)             85.623          estimate D2E/DX2                !
 ! A5    A(10,3,11)            120.6047         estimate D2E/DX2                !
 ! A6    A(10,3,13)            109.3043         estimate D2E/DX2                !
 ! A7    A(10,3,33)            105.9751         estimate D2E/DX2                !
 ! A8    A(11,3,13)            110.9863         estimate D2E/DX2                !
 ! A9    A(11,3,33)            102.6177         estimate D2E/DX2                !
 ! A10   A(13,3,33)            106.0782         estimate D2E/DX2                !
 ! A11   A(1,4,37)             104.9852         estimate D2E/DX2                !
 ! A12   A(1,4,60)             115.6253         estimate D2E/DX2                !
 ! A13   A(1,4,71)             117.9707         estimate D2E/DX2                !
 ! A14   A(37,4,60)            103.308          estimate D2E/DX2                !
 ! A15   A(37,4,71)            105.8914         estimate D2E/DX2                !
 ! A16   A(60,4,71)            107.5443         estimate D2E/DX2                !
 ! A17   A(1,5,36)             102.4866         estimate D2E/DX2                !
 ! A18   A(1,5,38)             122.9261         estimate D2E/DX2                !
 ! A19   A(1,5,49)             113.8095         estimate D2E/DX2                !
 ! A20   A(36,5,38)            104.7484         estimate D2E/DX2                !
 ! A21   A(36,5,49)            104.4109         estimate D2E/DX2                !
 ! A22   A(38,5,49)            106.4551         estimate D2E/DX2                !
 ! A23   A(19,12,20)           118.5286         estimate D2E/DX2                !
 ! A24   A(1,13,3)             120.3924         estimate D2E/DX2                !
 ! A25   A(1,13,32)            116.3385         estimate D2E/DX2                !
 ! A26   A(3,13,32)            120.3917         estimate D2E/DX2                !
 ! A27   A(1,14,15)            120.4135         estimate D2E/DX2                !
 ! A28   A(1,14,26)            121.7364         estimate D2E/DX2                !
 ! A29   A(15,14,26)           117.6649         estimate D2E/DX2                !
 ! A30   A(14,15,16)           120.029          estimate D2E/DX2                !
 ! A31   A(14,15,17)           122.5179         estimate D2E/DX2                !
 ! A32   A(16,15,17)           117.453          estimate D2E/DX2                !
 ! A33   A(15,17,18)           121.5855         estimate D2E/DX2                !
 ! A34   A(15,17,19)           119.5665         estimate D2E/DX2                !
 ! A35   A(18,17,19)           118.848          estimate D2E/DX2                !
 ! A36   A(12,19,17)           116.642          estimate D2E/DX2                !
 ! A37   A(12,19,24)           124.1637         estimate D2E/DX2                !
 ! A38   A(17,19,24)           119.1939         estimate D2E/DX2                !
 ! A39   A(12,20,21)           111.9944         estimate D2E/DX2                !
 ! A40   A(12,20,22)           106.7465         estimate D2E/DX2                !
 ! A41   A(12,20,23)           111.9335         estimate D2E/DX2                !
 ! A42   A(21,20,22)           108.7287         estimate D2E/DX2                !
 ! A43   A(21,20,23)           108.439          estimate D2E/DX2                !
 ! A44   A(22,20,23)           108.908          estimate D2E/DX2                !
 ! A45   A(19,24,25)           119.9543         estimate D2E/DX2                !
 ! A46   A(19,24,26)           121.0977         estimate D2E/DX2                !
 ! A47   A(25,24,26)           118.9458         estimate D2E/DX2                !
 ! A48   A(14,26,24)           119.9536         estimate D2E/DX2                !
 ! A49   A(14,26,27)           122.0412         estimate D2E/DX2                !
 ! A50   A(24,26,27)           117.9637         estimate D2E/DX2                !
 ! A51   A(26,27,28)           121.7651         estimate D2E/DX2                !
 ! A52   A(26,27,32)           120.2605         estimate D2E/DX2                !
 ! A53   A(28,27,32)           117.9453         estimate D2E/DX2                !
 ! A54   A(6,28,27)            121.3314         estimate D2E/DX2                !
 ! A55   A(6,28,29)            116.3824         estimate D2E/DX2                !
 ! A56   A(27,28,29)           122.2849         estimate D2E/DX2                !
 ! A57   A(7,29,28)            120.4153         estimate D2E/DX2                !
 ! A58   A(7,29,30)            120.1928         estimate D2E/DX2                !
 ! A59   A(28,29,30)           119.3868         estimate D2E/DX2                !
 ! A60   A(8,30,29)            120.0388         estimate D2E/DX2                !
 ! A61   A(8,30,31)            120.3566         estimate D2E/DX2                !
 ! A62   A(29,30,31)           119.5594         estimate D2E/DX2                !
 ! A63   A(9,31,30)            117.6757         estimate D2E/DX2                !
 ! A64   A(9,31,32)            120.8132         estimate D2E/DX2                !
 ! A65   A(30,31,32)           121.4685         estimate D2E/DX2                !
 ! A66   A(13,32,27)           121.0504         estimate D2E/DX2                !
 ! A67   A(13,32,31)           119.471          estimate D2E/DX2                !
 ! A68   A(27,32,31)           119.2679         estimate D2E/DX2                !
 ! A69   A(2,33,3)             114.0325         estimate D2E/DX2                !
 ! A70   A(2,33,34)            108.8547         estimate D2E/DX2                !
 ! A71   A(2,33,35)            109.6212         estimate D2E/DX2                !
 ! A72   A(3,33,34)            105.1913         estimate D2E/DX2                !
 ! A73   A(3,33,35)            107.8145         estimate D2E/DX2                !
 ! A74   A(34,33,35)           111.2841         estimate D2E/DX2                !
 ! A75   A(5,36,37)            116.6356         estimate D2E/DX2                !
 ! A76   A(5,36,83)            123.796          estimate D2E/DX2                !
 ! A77   A(37,36,83)           119.5348         estimate D2E/DX2                !
 ! A78   A(4,37,36)            116.0331         estimate D2E/DX2                !
 ! A79   A(4,37,82)            123.7629         estimate D2E/DX2                !
 ! A80   A(36,37,82)           120.2024         estimate D2E/DX2                !
 ! A81   A(5,38,39)            122.3335         estimate D2E/DX2                !
 ! A82   A(5,38,47)            117.5393         estimate D2E/DX2                !
 ! A83   A(39,38,47)           120.1272         estimate D2E/DX2                !
 ! A84   A(38,39,40)           120.0148         estimate D2E/DX2                !
 ! A85   A(38,39,41)           119.6634         estimate D2E/DX2                !
 ! A86   A(40,39,41)           120.3166         estimate D2E/DX2                !
 ! A87   A(39,41,42)           119.7428         estimate D2E/DX2                !
 ! A88   A(39,41,43)           120.1302         estimate D2E/DX2                !
 ! A89   A(42,41,43)           120.1235         estimate D2E/DX2                !
 ! A90   A(41,43,44)           119.9063         estimate D2E/DX2                !
 ! A91   A(41,43,45)           120.1706         estimate D2E/DX2                !
 ! A92   A(44,43,45)           119.9169         estimate D2E/DX2                !
 ! A93   A(43,45,46)           120.4871         estimate D2E/DX2                !
 ! A94   A(43,45,47)           119.9509         estimate D2E/DX2                !
 ! A95   A(46,45,47)           119.5402         estimate D2E/DX2                !
 ! A96   A(38,47,45)           119.9548         estimate D2E/DX2                !
 ! A97   A(38,47,48)           119.6449         estimate D2E/DX2                !
 ! A98   A(45,47,48)           120.3734         estimate D2E/DX2                !
 ! A99   A(5,49,50)            117.2993         estimate D2E/DX2                !
 ! A100  A(5,49,58)            122.5477         estimate D2E/DX2                !
 ! A101  A(50,49,58)           120.0182         estimate D2E/DX2                !
 ! A102  A(49,50,51)           119.6834         estimate D2E/DX2                !
 ! A103  A(49,50,52)           119.5665         estimate D2E/DX2                !
 ! A104  A(51,50,52)           120.7482         estimate D2E/DX2                !
 ! A105  A(50,52,53)           119.3639         estimate D2E/DX2                !
 ! A106  A(50,52,54)           120.4084         estimate D2E/DX2                !
 ! A107  A(53,52,54)           120.2252         estimate D2E/DX2                !
 ! A108  A(52,54,55)           120.0714         estimate D2E/DX2                !
 ! A109  A(52,54,56)           119.9624         estimate D2E/DX2                !
 ! A110  A(55,54,56)           119.9658         estimate D2E/DX2                !
 ! A111  A(54,56,57)           120.2454         estimate D2E/DX2                !
 ! A112  A(54,56,58)           120.0977         estimate D2E/DX2                !
 ! A113  A(57,56,58)           119.6558         estimate D2E/DX2                !
 ! A114  A(49,58,56)           119.9442         estimate D2E/DX2                !
 ! A115  A(49,58,59)           120.2175         estimate D2E/DX2                !
 ! A116  A(56,58,59)           119.8314         estimate D2E/DX2                !
 ! A117  A(4,60,61)            118.2907         estimate D2E/DX2                !
 ! A118  A(4,60,69)            121.8452         estimate D2E/DX2                !
 ! A119  A(61,60,69)           119.7502         estimate D2E/DX2                !
 ! A120  A(60,61,62)           119.4007         estimate D2E/DX2                !
 ! A121  A(60,61,63)           120.0765         estimate D2E/DX2                !
 ! A122  A(62,61,63)           120.4927         estimate D2E/DX2                !
 ! A123  A(61,63,64)           119.5969         estimate D2E/DX2                !
 ! A124  A(61,63,65)           120.0253         estimate D2E/DX2                !
 ! A125  A(64,63,65)           120.369          estimate D2E/DX2                !
 ! A126  A(63,65,66)           119.9846         estimate D2E/DX2                !
 ! A127  A(63,65,67)           120.1097         estimate D2E/DX2                !
 ! A128  A(66,65,67)           119.9008         estimate D2E/DX2                !
 ! A129  A(65,67,68)           120.1321         estimate D2E/DX2                !
 ! A130  A(65,67,69)           120.062          estimate D2E/DX2                !
 ! A131  A(68,67,69)           119.8027         estimate D2E/DX2                !
 ! A132  A(60,69,67)           119.9695         estimate D2E/DX2                !
 ! A133  A(60,69,70)           120.2361         estimate D2E/DX2                !
 ! A134  A(67,69,70)           119.7846         estimate D2E/DX2                !
 ! A135  A(4,71,72)            116.9005         estimate D2E/DX2                !
 ! A136  A(4,71,80)            123.1309         estimate D2E/DX2                !
 ! A137  A(72,71,80)           119.8785         estimate D2E/DX2                !
 ! A138  A(71,72,73)           119.7209         estimate D2E/DX2                !
 ! A139  A(71,72,74)           120.0405         estimate D2E/DX2                !
 ! A140  A(73,72,74)           120.2044         estimate D2E/DX2                !
 ! A141  A(72,74,75)           119.6902         estimate D2E/DX2                !
 ! A142  A(72,74,76)           120.0152         estimate D2E/DX2                !
 ! A143  A(75,74,76)           120.281          estimate D2E/DX2                !
 ! A144  A(74,76,77)           119.9474         estimate D2E/DX2                !
 ! A145  A(74,76,78)           120.0617         estimate D2E/DX2                !
 ! A146  A(77,76,78)           119.9861         estimate D2E/DX2                !
 ! A147  A(76,78,79)           120.165          estimate D2E/DX2                !
 ! A148  A(76,78,80)           120.1787         estimate D2E/DX2                !
 ! A149  A(79,78,80)           119.6531         estimate D2E/DX2                !
 ! A150  A(71,80,78)           119.8195         estimate D2E/DX2                !
 ! A151  A(71,80,81)           120.2258         estimate D2E/DX2                !
 ! A152  A(78,80,81)           119.945          estimate D2E/DX2                !
 ! A153  A(37,82,85)           119.7804         estimate D2E/DX2                !
 ! A154  A(37,82,86)           119.839          estimate D2E/DX2                !
 ! A155  A(85,82,86)           120.363          estimate D2E/DX2                !
 ! A156  A(36,83,84)           120.0424         estimate D2E/DX2                !
 ! A157  A(36,83,88)           119.585          estimate D2E/DX2                !
 ! A158  A(84,83,88)           120.3604         estimate D2E/DX2                !
 ! A159  A(83,84,85)           120.2817         estimate D2E/DX2                !
 ! A160  A(83,84,89)           119.7163         estimate D2E/DX2                !
 ! A161  A(85,84,89)           119.9959         estimate D2E/DX2                !
 ! A162  A(82,85,84)           120.1571         estimate D2E/DX2                !
 ! A163  A(82,85,87)           119.7755         estimate D2E/DX2                !
 ! A164  A(84,85,87)           120.0624         estimate D2E/DX2                !
 ! A165  L(4,1,13,14,-1)       178.7592         estimate D2E/DX2                !
 ! A166  L(5,1,14,13,-1)       184.7617         estimate D2E/DX2                !
 ! A167  L(4,1,13,14,-2)       191.1323         estimate D2E/DX2                !
 ! A168  L(5,1,14,13,-2)       180.6785         estimate D2E/DX2                !
 ! D1    D(5,1,4,37)           -35.687          estimate D2E/DX2                !
 ! D2    D(5,1,4,60)            77.4341         estimate D2E/DX2                !
 ! D3    D(5,1,4,71)          -153.2739         estimate D2E/DX2                !
 ! D4    D(14,1,4,37)          145.9031         estimate D2E/DX2                !
 ! D5    D(14,1,4,60)         -100.9759         estimate D2E/DX2                !
 ! D6    D(14,1,4,71)           28.3162         estimate D2E/DX2                !
 ! D7    D(37,4,13,3)         -110.1929         estimate D2E/DX2                !
 ! D8    D(37,4,13,32)          87.2511         estimate D2E/DX2                !
 ! D9    D(60,4,13,3)            3.8613         estimate D2E/DX2                !
 ! D10   D(60,4,13,32)        -158.6947         estimate D2E/DX2                !
 ! D11   D(71,4,13,3)          135.5112         estimate D2E/DX2                !
 ! D12   D(71,4,13,32)         -27.0448         estimate D2E/DX2                !
 ! D13   D(4,1,5,36)            33.9413         estimate D2E/DX2                !
 ! D14   D(4,1,5,38)           150.9448         estimate D2E/DX2                !
 ! D15   D(4,1,5,49)           -78.1653         estimate D2E/DX2                !
 ! D16   D(13,1,5,36)         -134.8563         estimate D2E/DX2                !
 ! D17   D(13,1,5,38)          -17.8528         estimate D2E/DX2                !
 ! D18   D(13,1,5,49)          113.0371         estimate D2E/DX2                !
 ! D19   D(36,5,14,15)          83.4031         estimate D2E/DX2                !
 ! D20   D(36,5,14,26)        -100.1603         estimate D2E/DX2                !
 ! D21   D(38,5,14,15)        -159.4795         estimate D2E/DX2                !
 ! D22   D(38,5,14,26)          16.9572         estimate D2E/DX2                !
 ! D23   D(49,5,14,15)         -27.5213         estimate D2E/DX2                !
 ! D24   D(49,5,14,26)         148.9154         estimate D2E/DX2                !
 ! D25   D(5,1,13,3)           -75.5367         estimate D2E/DX2                !
 ! D26   D(5,1,13,32)          123.5877         estimate D2E/DX2                !
 ! D27   D(14,1,13,3)          103.7848         estimate D2E/DX2                !
 ! D28   D(14,1,13,32)         -57.0908         estimate D2E/DX2                !
 ! D29   D(4,1,14,15)           50.43           estimate D2E/DX2                !
 ! D30   D(4,1,14,26)         -134.6312         estimate D2E/DX2                !
 ! D31   D(13,1,14,15)        -140.7024         estimate D2E/DX2                !
 ! D32   D(13,1,14,26)          34.2365         estimate D2E/DX2                !
 ! D33   D(10,3,13,1)           53.8019         estimate D2E/DX2                !
 ! D34   D(10,3,13,32)        -146.0984         estimate D2E/DX2                !
 ! D35   D(11,3,13,1)         -170.7897         estimate D2E/DX2                !
 ! D36   D(11,3,13,32)         -10.6899         estimate D2E/DX2                !
 ! D37   D(33,3,13,1)          -60.0545         estimate D2E/DX2                !
 ! D38   D(33,3,13,32)         100.0453         estimate D2E/DX2                !
 ! D39   D(10,3,33,2)          -39.7999         estimate D2E/DX2                !
 ! D40   D(10,3,33,34)          79.3918         estimate D2E/DX2                !
 ! D41   D(10,3,33,35)        -161.7702         estimate D2E/DX2                !
 ! D42   D(11,3,33,2)         -167.1549         estimate D2E/DX2                !
 ! D43   D(11,3,33,34)         -47.9632         estimate D2E/DX2                !
 ! D44   D(11,3,33,35)          70.8748         estimate D2E/DX2                !
 ! D45   D(13,3,33,2)           76.3278         estimate D2E/DX2                !
 ! D46   D(13,3,33,34)        -164.4805         estimate D2E/DX2                !
 ! D47   D(13,3,33,35)         -45.6425         estimate D2E/DX2                !
 ! D48   D(1,4,37,36)           31.7786         estimate D2E/DX2                !
 ! D49   D(1,4,37,82)         -148.6916         estimate D2E/DX2                !
 ! D50   D(60,4,37,36)         -89.7805         estimate D2E/DX2                !
 ! D51   D(60,4,37,82)          89.7493         estimate D2E/DX2                !
 ! D52   D(71,4,37,36)         157.3016         estimate D2E/DX2                !
 ! D53   D(71,4,37,82)         -23.1686         estimate D2E/DX2                !
 ! D54   D(1,4,60,61)           17.6182         estimate D2E/DX2                !
 ! D55   D(1,4,60,69)         -158.4913         estimate D2E/DX2                !
 ! D56   D(37,4,60,61)         131.7066         estimate D2E/DX2                !
 ! D57   D(37,4,60,69)         -44.4028         estimate D2E/DX2                !
 ! D58   D(71,4,60,61)        -116.5852         estimate D2E/DX2                !
 ! D59   D(71,4,60,69)          67.3054         estimate D2E/DX2                !
 ! D60   D(1,4,71,72)           41.0388         estimate D2E/DX2                !
 ! D61   D(1,4,71,80)         -135.4981         estimate D2E/DX2                !
 ! D62   D(37,4,71,72)         -76.0641         estimate D2E/DX2                !
 ! D63   D(37,4,71,80)         107.399          estimate D2E/DX2                !
 ! D64   D(60,4,71,72)         173.9972         estimate D2E/DX2                !
 ! D65   D(60,4,71,80)          -2.5397         estimate D2E/DX2                !
 ! D66   D(1,5,36,37)          -25.5585         estimate D2E/DX2                !
 ! D67   D(1,5,36,83)          152.3194         estimate D2E/DX2                !
 ! D68   D(38,5,36,37)        -154.9036         estimate D2E/DX2                !
 ! D69   D(38,5,36,83)          22.9743         estimate D2E/DX2                !
 ! D70   D(49,5,36,37)          93.3762         estimate D2E/DX2                !
 ! D71   D(49,5,36,83)         -88.7459         estimate D2E/DX2                !
 ! D72   D(1,5,38,39)          149.8617         estimate D2E/DX2                !
 ! D73   D(1,5,38,47)          -30.2059         estimate D2E/DX2                !
 ! D74   D(36,5,38,39)         -94.2361         estimate D2E/DX2                !
 ! D75   D(36,5,38,47)          85.6962         estimate D2E/DX2                !
 ! D76   D(49,5,38,39)          16.0127         estimate D2E/DX2                !
 ! D77   D(49,5,38,47)        -164.0549         estimate D2E/DX2                !
 ! D78   D(1,5,49,50)          -62.0141         estimate D2E/DX2                !
 ! D79   D(1,5,49,58)          113.7617         estimate D2E/DX2                !
 ! D80   D(36,5,49,50)        -172.9538         estimate D2E/DX2                !
 ! D81   D(36,5,49,58)           2.822          estimate D2E/DX2                !
 ! D82   D(38,5,49,50)          76.5609         estimate D2E/DX2                !
 ! D83   D(38,5,49,58)        -107.6633         estimate D2E/DX2                !
 ! D84   D(20,12,19,17)       -179.2325         estimate D2E/DX2                !
 ! D85   D(20,12,19,24)          1.0038         estimate D2E/DX2                !
 ! D86   D(19,12,20,21)        -62.3824         estimate D2E/DX2                !
 ! D87   D(19,12,20,22)        178.7253         estimate D2E/DX2                !
 ! D88   D(19,12,20,23)         59.6491         estimate D2E/DX2                !
 ! D89   D(1,13,32,27)          43.386          estimate D2E/DX2                !
 ! D90   D(1,13,32,31)        -131.3001         estimate D2E/DX2                !
 ! D91   D(3,13,32,27)        -117.4897         estimate D2E/DX2                !
 ! D92   D(3,13,32,31)          67.8242         estimate D2E/DX2                !
 ! D93   D(1,14,15,16)          -4.7891         estimate D2E/DX2                !
 ! D94   D(1,14,15,17)         175.2933         estimate D2E/DX2                !
 ! D95   D(26,14,15,16)       -179.9295         estimate D2E/DX2                !
 ! D96   D(26,14,15,17)          0.1528         estimate D2E/DX2                !
 ! D97   D(1,14,26,24)        -174.602          estimate D2E/DX2                !
 ! D98   D(1,14,26,27)           3.0079         estimate D2E/DX2                !
 ! D99   D(15,14,26,24)          0.4702         estimate D2E/DX2                !
 ! D100  D(15,14,26,27)        178.0802         estimate D2E/DX2                !
 ! D101  D(14,15,17,18)        179.5357         estimate D2E/DX2                !
 ! D102  D(14,15,17,19)         -0.387          estimate D2E/DX2                !
 ! D103  D(16,15,17,18)         -0.384          estimate D2E/DX2                !
 ! D104  D(16,15,17,19)        179.6934         estimate D2E/DX2                !
 ! D105  D(15,17,19,12)       -179.7888         estimate D2E/DX2                !
 ! D106  D(15,17,19,24)         -0.0128         estimate D2E/DX2                !
 ! D107  D(18,17,19,12)          0.2864         estimate D2E/DX2                !
 ! D108  D(18,17,19,24)       -179.9376         estimate D2E/DX2                !
 ! D109  D(12,19,24,25)          0.9391         estimate D2E/DX2                !
 ! D110  D(12,19,24,26)       -179.6035         estimate D2E/DX2                !
 ! D111  D(17,19,24,25)       -178.819          estimate D2E/DX2                !
 ! D112  D(17,19,24,26)          0.6384         estimate D2E/DX2                !
 ! D113  D(19,24,26,14)         -0.876          estimate D2E/DX2                !
 ! D114  D(19,24,26,27)       -178.5823         estimate D2E/DX2                !
 ! D115  D(25,24,26,14)        178.5867         estimate D2E/DX2                !
 ! D116  D(25,24,26,27)          0.8805         estimate D2E/DX2                !
 ! D117  D(14,26,27,28)        145.5079         estimate D2E/DX2                !
 ! D118  D(14,26,27,32)        -36.4981         estimate D2E/DX2                !
 ! D119  D(24,26,27,28)        -36.8366         estimate D2E/DX2                !
 ! D120  D(24,26,27,32)        141.1573         estimate D2E/DX2                !
 ! D121  D(26,27,28,6)          -5.4586         estimate D2E/DX2                !
 ! D122  D(26,27,28,29)        174.9697         estimate D2E/DX2                !
 ! D123  D(32,27,28,6)         176.5028         estimate D2E/DX2                !
 ! D124  D(32,27,28,29)         -3.0689         estimate D2E/DX2                !
 ! D125  D(26,27,32,13)         10.2023         estimate D2E/DX2                !
 ! D126  D(26,27,32,31)       -175.101          estimate D2E/DX2                !
 ! D127  D(28,27,32,13)       -171.7284         estimate D2E/DX2                !
 ! D128  D(28,27,32,31)          2.9683         estimate D2E/DX2                !
 ! D129  D(6,28,29,7)            0.4501         estimate D2E/DX2                !
 ! D130  D(6,28,29,30)        -178.7377         estimate D2E/DX2                !
 ! D131  D(27,28,29,7)        -179.9583         estimate D2E/DX2                !
 ! D132  D(27,28,29,30)          0.8539         estimate D2E/DX2                !
 ! D133  D(7,29,30,8)           -0.1537         estimate D2E/DX2                !
 ! D134  D(7,29,30,31)        -177.7185         estimate D2E/DX2                !
 ! D135  D(28,29,30,8)         179.036          estimate D2E/DX2                !
 ! D136  D(28,29,30,31)          1.4712         estimate D2E/DX2                !
 ! D137  D(8,30,31,9)           -1.421          estimate D2E/DX2                !
 ! D138  D(8,30,31,32)        -179.065          estimate D2E/DX2                !
 ! D139  D(29,30,31,9)         176.1359         estimate D2E/DX2                !
 ! D140  D(29,30,31,32)         -1.5081         estimate D2E/DX2                !
 ! D141  D(9,31,32,13)          -3.5474         estimate D2E/DX2                !
 ! D142  D(9,31,32,27)        -178.3289         estimate D2E/DX2                !
 ! D143  D(30,31,32,13)        174.0232         estimate D2E/DX2                !
 ! D144  D(30,31,32,27)         -0.7584         estimate D2E/DX2                !
 ! D145  D(5,36,37,4)           -2.8364         estimate D2E/DX2                !
 ! D146  D(5,36,37,82)         177.6159         estimate D2E/DX2                !
 ! D147  D(83,36,37,4)         179.1905         estimate D2E/DX2                !
 ! D148  D(83,36,37,82)         -0.3573         estimate D2E/DX2                !
 ! D149  D(5,36,83,84)        -177.6893         estimate D2E/DX2                !
 ! D150  D(5,36,83,88)           1.0454         estimate D2E/DX2                !
 ! D151  D(37,36,83,84)          0.1305         estimate D2E/DX2                !
 ! D152  D(37,36,83,88)        178.8652         estimate D2E/DX2                !
 ! D153  D(4,37,82,85)        -179.243          estimate D2E/DX2                !
 ! D154  D(4,37,82,86)           2.282          estimate D2E/DX2                !
 ! D155  D(36,37,82,85)          0.2682         estimate D2E/DX2                !
 ! D156  D(36,37,82,86)       -178.2068         estimate D2E/DX2                !
 ! D157  D(5,38,39,40)          -1.5416         estimate D2E/DX2                !
 ! D158  D(5,38,39,41)         179.2884         estimate D2E/DX2                !
 ! D159  D(47,38,39,40)        178.5277         estimate D2E/DX2                !
 ! D160  D(47,38,39,41)         -0.6423         estimate D2E/DX2                !
 ! D161  D(5,38,47,45)        -179.4307         estimate D2E/DX2                !
 ! D162  D(5,38,47,48)           2.4466         estimate D2E/DX2                !
 ! D163  D(39,38,47,45)          0.5032         estimate D2E/DX2                !
 ! D164  D(39,38,47,48)       -177.6194         estimate D2E/DX2                !
 ! D165  D(38,39,41,42)        179.6729         estimate D2E/DX2                !
 ! D166  D(38,39,41,43)          0.353          estimate D2E/DX2                !
 ! D167  D(40,39,41,42)          0.5054         estimate D2E/DX2                !
 ! D168  D(40,39,41,43)       -178.8145         estimate D2E/DX2                !
 ! D169  D(39,41,43,44)        179.1723         estimate D2E/DX2                !
 ! D170  D(39,41,43,45)          0.0757         estimate D2E/DX2                !
 ! D171  D(42,41,43,44)         -0.145          estimate D2E/DX2                !
 ! D172  D(42,41,43,45)       -179.2416         estimate D2E/DX2                !
 ! D173  D(41,43,45,46)        178.0743         estimate D2E/DX2                !
 ! D174  D(41,43,45,47)         -0.2169         estimate D2E/DX2                !
 ! D175  D(44,43,45,46)         -1.0222         estimate D2E/DX2                !
 ! D176  D(44,43,45,47)       -179.3134         estimate D2E/DX2                !
 ! D177  D(43,45,47,38)         -0.0726         estimate D2E/DX2                !
 ! D178  D(43,45,47,48)        178.0362         estimate D2E/DX2                !
 ! D179  D(46,45,47,38)       -178.38           estimate D2E/DX2                !
 ! D180  D(46,45,47,48)         -0.2712         estimate D2E/DX2                !
 ! D181  D(5,49,50,51)          -3.256          estimate D2E/DX2                !
 ! D182  D(5,49,50,52)         176.2496         estimate D2E/DX2                !
 ! D183  D(58,49,50,51)       -179.1438         estimate D2E/DX2                !
 ! D184  D(58,49,50,52)          0.3618         estimate D2E/DX2                !
 ! D185  D(5,49,58,56)        -175.584          estimate D2E/DX2                !
 ! D186  D(5,49,58,59)           3.4581         estimate D2E/DX2                !
 ! D187  D(50,49,58,56)          0.0806         estimate D2E/DX2                !
 ! D188  D(50,49,58,59)        179.1227         estimate D2E/DX2                !
 ! D189  D(49,50,52,53)        179.9957         estimate D2E/DX2                !
 ! D190  D(49,50,52,54)         -0.5808         estimate D2E/DX2                !
 ! D191  D(51,50,52,53)         -0.5041         estimate D2E/DX2                !
 ! D192  D(51,50,52,54)        178.9194         estimate D2E/DX2                !
 ! D193  D(50,52,54,55)       -179.3992         estimate D2E/DX2                !
 ! D194  D(50,52,54,56)          0.3566         estimate D2E/DX2                !
 ! D195  D(53,52,54,55)          0.0193         estimate D2E/DX2                !
 ! D196  D(53,52,54,56)        179.7751         estimate D2E/DX2                !
 ! D197  D(52,54,56,57)       -179.5298         estimate D2E/DX2                !
 ! D198  D(52,54,56,58)          0.0911         estimate D2E/DX2                !
 ! D199  D(55,54,56,57)          0.2263         estimate D2E/DX2                !
 ! D200  D(55,54,56,58)        179.8471         estimate D2E/DX2                !
 ! D201  D(54,56,58,49)         -0.3076         estimate D2E/DX2                !
 ! D202  D(54,56,58,59)       -179.3534         estimate D2E/DX2                !
 ! D203  D(57,56,58,49)        179.3155         estimate D2E/DX2                !
 ! D204  D(57,56,58,59)          0.2697         estimate D2E/DX2                !
 ! D205  D(4,60,61,62)           1.0496         estimate D2E/DX2                !
 ! D206  D(4,60,61,63)        -176.9649         estimate D2E/DX2                !
 ! D207  D(69,60,61,62)        177.243          estimate D2E/DX2                !
 ! D208  D(69,60,61,63)         -0.7715         estimate D2E/DX2                !
 ! D209  D(4,60,69,67)         177.0474         estimate D2E/DX2                !
 ! D210  D(4,60,69,70)          -1.8065         estimate D2E/DX2                !
 ! D211  D(61,60,69,67)          0.9935         estimate D2E/DX2                !
 ! D212  D(61,60,69,70)       -177.8605         estimate D2E/DX2                !
 ! D213  D(60,61,63,64)        179.0325         estimate D2E/DX2                !
 ! D214  D(60,61,63,65)          0.1089         estimate D2E/DX2                !
 ! D215  D(62,61,63,64)          1.04           estimate D2E/DX2                !
 ! D216  D(62,61,63,65)       -177.8836         estimate D2E/DX2                !
 ! D217  D(61,63,65,66)        179.5271         estimate D2E/DX2                !
 ! D218  D(61,63,65,67)          0.335          estimate D2E/DX2                !
 ! D219  D(64,63,65,66)          0.6119         estimate D2E/DX2                !
 ! D220  D(64,63,65,67)       -178.5802         estimate D2E/DX2                !
 ! D221  D(63,65,67,68)        179.2343         estimate D2E/DX2                !
 ! D222  D(63,65,67,69)         -0.1116         estimate D2E/DX2                !
 ! D223  D(66,65,67,68)          0.0415         estimate D2E/DX2                !
 ! D224  D(66,65,67,69)       -179.3044         estimate D2E/DX2                !
 ! D225  D(65,67,69,60)         -0.5538         estimate D2E/DX2                !
 ! D226  D(65,67,69,70)        178.3053         estimate D2E/DX2                !
 ! D227  D(68,67,69,60)       -179.9019         estimate D2E/DX2                !
 ! D228  D(68,67,69,70)         -1.0427         estimate D2E/DX2                !
 ! D229  D(4,71,72,73)           0.2778         estimate D2E/DX2                !
 ! D230  D(4,71,72,74)        -177.6014         estimate D2E/DX2                !
 ! D231  D(80,71,72,73)        176.9333         estimate D2E/DX2                !
 ! D232  D(80,71,72,74)         -0.9459         estimate D2E/DX2                !
 ! D233  D(4,71,80,78)         177.1301         estimate D2E/DX2                !
 ! D234  D(4,71,80,81)          -1.7437         estimate D2E/DX2                !
 ! D235  D(72,71,80,78)          0.6921         estimate D2E/DX2                !
 ! D236  D(72,71,80,81)       -178.1818         estimate D2E/DX2                !
 ! D237  D(71,72,74,75)        179.3045         estimate D2E/DX2                !
 ! D238  D(71,72,74,76)          0.6407         estimate D2E/DX2                !
 ! D239  D(73,72,74,75)          1.4357         estimate D2E/DX2                !
 ! D240  D(73,72,74,76)       -177.2282         estimate D2E/DX2                !
 ! D241  D(72,74,76,77)        179.1138         estimate D2E/DX2                !
 ! D242  D(72,74,76,78)         -0.0833         estimate D2E/DX2                !
 ! D243  D(75,74,76,77)          0.4579         estimate D2E/DX2                !
 ! D244  D(75,74,76,78)       -178.7391         estimate D2E/DX2                !
 ! D245  D(74,76,78,79)        179.1845         estimate D2E/DX2                !
 ! D246  D(74,76,78,80)         -0.1699         estimate D2E/DX2                !
 ! D247  D(77,76,78,79)         -0.0122         estimate D2E/DX2                !
 ! D248  D(77,76,78,80)       -179.3667         estimate D2E/DX2                !
 ! D249  D(76,78,80,71)         -0.1366         estimate D2E/DX2                !
 ! D250  D(76,78,80,81)        178.7405         estimate D2E/DX2                !
 ! D251  D(79,78,80,71)       -179.4943         estimate D2E/DX2                !
 ! D252  D(79,78,80,81)         -0.6173         estimate D2E/DX2                !
 ! D253  D(37,82,85,84)          0.048          estimate D2E/DX2                !
 ! D254  D(37,82,85,87)       -179.1423         estimate D2E/DX2                !
 ! D255  D(86,82,85,84)        178.5149         estimate D2E/DX2                !
 ! D256  D(86,82,85,87)         -0.6754         estimate D2E/DX2                !
 ! D257  D(36,83,84,85)          0.1846         estimate D2E/DX2                !
 ! D258  D(36,83,84,89)        179.2858         estimate D2E/DX2                !
 ! D259  D(88,83,84,85)       -178.5403         estimate D2E/DX2                !
 ! D260  D(88,83,84,89)          0.5609         estimate D2E/DX2                !
 ! D261  D(83,84,85,82)         -0.2755         estimate D2E/DX2                !
 ! D262  D(83,84,85,87)        178.9124         estimate D2E/DX2                !
 ! D263  D(89,84,85,82)       -179.3742         estimate D2E/DX2                !
 ! D264  D(89,84,85,87)         -0.1863         estimate D2E/DX2                !
 --------------------------------------------------------------------------------
 Trust Radius=3.00D-01 FncErr=1.00D-07 GrdErr=1.00D-06
 Number of steps in this run=    534 maximum allowed number of steps=    534.
 GradGradGradGradGradGradGradGradGradGradGradGradGradGradGradGradGradGrad

 Leave Link  103 at Thu Jun  5 16:29:16 2025, MaxMem=  4294967296 cpu:         0.0
 (Enter /cluster/software/commercial/gaussian/g09/l202.exe)
 Stoichiometry    C44H32ClF4NO3P2PdS
 Framework group  C1[X(C44H32ClF4NO3P2PdS)]
 Deg. of freedom   261
 Full point group                 C1      NOp   1
 Largest Abelian subgroup         C1      NOp   1
 Largest concise Abelian subgroup C1      NOp   1
                         Standard orientation:                         
 ---------------------------------------------------------------------
 Center     Atomic      Atomic             Coordinates (Angstroms)
 Number     Number       Type             X           Y           Z
 ---------------------------------------------------------------------
      1         46           0        0.002768   -0.047465   -0.173803
      2         17           0       -0.222189   -0.141009   -3.587527
      3         16           0        1.060386    2.190879   -2.187843
      4         15           0       -1.175268   -1.665445    0.855189
      5         15           0       -1.873149    1.260622    0.426209
      6          9           0        5.110751   -0.628121    1.275553
      7          9           0        5.917256    1.725443    2.204911
      8          9           0        4.513911    3.985730    1.644177
      9          9           0        2.259964    3.848353    0.210086
     10          8           0       -0.310825    2.689006   -2.275392
     11          8           0        2.189594    3.063543   -2.497458
     12          8           0        4.509077   -3.884750   -2.021065
     13          7           0        1.271510    1.453595   -0.763900
     14          6           0        1.510245   -1.303912   -0.665680
     15          6           0        1.238140   -2.526470   -1.300205
     16          1           0        0.203913   -2.840801   -1.461237
     17          6           0        2.240744   -3.376355   -1.742021
     18          1           0        2.011773   -4.327315   -2.227080
     19          6           0        3.580362   -3.014627   -1.564293
     20          6           0        5.860791   -3.570092   -1.849247
     21          1           0        6.142180   -2.646476   -2.386428
     22          1           0        6.435810   -4.408121   -2.263972
     23          1           0        6.123852   -3.448232   -0.783187
     24          6           0        3.880555   -1.804182   -0.945438
     25          1           0        4.917504   -1.501790   -0.818212
     26          6           0        2.858321   -0.947867   -0.485390
     27          6           0        3.255380    0.337287    0.133836
     28          6           0        4.392878    0.445543    0.940771
     29          6           0        4.833604    1.665549    1.444197
     30          6           0        4.117058    2.821046    1.156209
     31          6           0        2.955628    2.736492    0.396424
     32          6           0        2.503557    1.512482   -0.115301
     33          6           0        1.203056    0.892191   -3.453657
     34          1           0        1.342834    1.428201   -4.401153
     35          1           0        2.080859    0.279628   -3.209008
     36          6           0       -2.375583    0.521554    2.033247
     37          6           0       -2.019587   -0.824139    2.248183
     38          6           0       -1.770076    3.039386    0.749022
     39          6           0       -2.837828    3.908002    0.500142
     40          1           0       -3.767193    3.523412    0.073157
     41          6           0       -2.702775    5.265377    0.783165
     42          1           0       -3.534063    5.945851    0.584273
     43          6           0       -1.505966    5.756072    1.305132
     44          1           0       -1.399364    6.823437    1.513076
     45          6           0       -0.438931    4.890941    1.544555
     46          1           0        0.510575    5.274134    1.923506
     47          6           0       -0.569084    3.533937    1.266590
     48          1           0        0.271847    2.855922    1.421175
     49          6           0       -3.317532    1.015513   -0.656930
     50          6           0       -3.170297    1.349999   -2.010906
     51          1           0       -2.231855    1.790012   -2.361363
     52          6           0       -4.217509    1.108364   -2.896085
     53          1           0       -4.099257    1.370311   -3.950204
     54          6           0       -5.402856    0.526268   -2.445699
     55          1           0       -6.217589    0.330063   -3.147131
     56          6           0       -5.546035    0.190020   -1.100743
     57          1           0       -6.469148   -0.272948   -0.744559
     58          6           0       -4.507771    0.436044   -0.204608
     59          1           0       -4.620588    0.161126    0.846358
     60          6           0       -2.553302   -2.369908   -0.106625
     61          6           0       -2.568945   -2.165054   -1.490107
     62          1           0       -1.754119   -1.608262   -1.959178
     63          6           0       -3.636484   -2.632334   -2.252877
     64          1           0       -3.648351   -2.454221   -3.330036
     65          6           0       -4.691726   -3.302736   -1.638175
     66          1           0       -5.532539   -3.662224   -2.236121
     67          6           0       -4.685107   -3.501431   -0.256863
     68          1           0       -5.518425   -4.016113    0.227193
     69          6           0       -3.622450   -3.032035    0.510071
     70          1           0       -3.635098   -3.165586    1.594741
     71          6           0       -0.258468   -3.048971    1.592055
     72          6           0        0.925926   -2.734185    2.272349
     73          1           0        1.251103   -1.692537    2.341109
     74          6           0        1.704963   -3.747257    2.818185
     75          1           0        2.632559   -3.496344    3.337189
     76          6           0        1.315288   -5.080667    2.677744
     77          1           0        1.936079   -5.877110    3.094763
     78          6           0        0.145048   -5.396964    1.992301
     79          1           0       -0.154488   -6.440344    1.869922
     80          6           0       -0.643810   -4.383859    1.446756
     81          1           0       -1.549771   -4.637249    0.892349
     82          6           0       -2.319842   -1.444548    3.461646
     83          6           0       -3.037116    1.227365    3.039336
     84          6           0       -3.339245    0.601183    4.248964
     85          6           0       -2.979643   -0.729039    4.461053
     86          1           0       -2.014755   -2.480346    3.633197
     87          1           0       -3.202150   -1.210496    5.416129
     88          1           0       -3.297194    2.277075    2.880553
     89          1           0       -3.846745    1.162093    5.037189
 ---------------------------------------------------------------------
 Rotational constants (GHZ):      0.0541321      0.0449402      0.0358698
 Leave Link  202 at Thu Jun  5 16:29:16 2025, MaxMem=  4294967296 cpu:         0.0
 (Enter /cluster/software/commercial/gaussian/g09/l301.exe)
 General basis read from cards:  (5D, 7F)
 Centers:      14     15     17     19     20     24     26     27     28     29
 Centers:      30     31     32     33     36     37     38     39     41     43
 Centers:      45     47     49     50     52     54     56     58     60     61
 Centers:      63     65     67     69     71     72     74     76     78     80
 Centers:      82     83     84     85     16     18     21     22     23     25
 Centers:      34     35     40     42     44     46     48     51     53     55
 Centers:      57     59     62     64     66     68     70     73     75     77
 Centers:      79     81     86     87     88     89      4      5      3      2
 Centers:      13      6      7      8      9     10     11     12
 def2svp
 ****
 Centers:       1
 def2tzvp
 ****
 ======================================================================================================
                                       Pseudopotential Parameters
 ======================================================================================================
  Center     Atomic      Valence      Angular      Power
  Number     Number     Electrons     Momentum     of R      Exponent        Coefficient   SO-Coeffient
 ======================================================================================================
    1         46           18
                                      G and up 
                                                     2        1.0000000        0.00000000    0.00000000
                                      S - G
                                                     2       12.4300000      240.22904000    0.00000000
                                                     2        6.1707590       35.17194300    0.00000000
                                      P - G
                                                     2       11.0800000      170.41727600    0.00000000
                                                     2        5.8295540       28.47213300    0.00000000
                                      D - G
                                                     2        9.5100000       69.01384500    0.00000000
                                                     2        4.1397810       11.75086200    0.00000000
                                      F - G
                                                     2       13.2700000      -31.92955400    0.00000000
                                                     2        6.6300000       -5.39821700    0.00000000
    2         17
                                   No pseudopotential on this center.
    3         16
                                   No pseudopotential on this center.
    4         15
                                   No pseudopotential on this center.
    5         15
                                   No pseudopotential on this center.
    6          9
                                   No pseudopotential on this center.
    7          9
                                   No pseudopotential on this center.
    8          9
                                   No pseudopotential on this center.
    9          9
                                   No pseudopotential on this center.
   10          8
                                   No pseudopotential on this center.
   11          8
                                   No pseudopotential on this center.
   12          8
                                   No pseudopotential on this center.
   13          7
                                   No pseudopotential on this center.
   14          6
                                   No pseudopotential on this center.
   15          6
                                   No pseudopotential on this center.
   16          1
                                   No pseudopotential on this center.
   17          6
                                   No pseudopotential on this center.
   18          1
                                   No pseudopotential on this center.
   19          6
                                   No pseudopotential on this center.
   20          6
                                   No pseudopotential on this center.
   21          1
                                   No pseudopotential on this center.
   22          1
                                   No pseudopotential on this center.
   23          1
                                   No pseudopotential on this center.
   24          6
                                   No pseudopotential on this center.
   25          1
                                   No pseudopotential on this center.
   26          6
                                   No pseudopotential on this center.
   27          6
                                   No pseudopotential on this center.
   28          6
                                   No pseudopotential on this center.
   29          6
                                   No pseudopotential on this center.
   30          6
                                   No pseudopotential on this center.
   31          6
                                   No pseudopotential on this center.
   32          6
                                   No pseudopotential on this center.
   33          6
                                   No pseudopotential on this center.
   34          1
                                   No pseudopotential on this center.
   35          1
                                   No pseudopotential on this center.
   36          6
                                   No pseudopotential on this center.
   37          6
                                   No pseudopotential on this center.
   38          6
                                   No pseudopotential on this center.
   39          6
                                   No pseudopotential on this center.
   40          1
                                   No pseudopotential on this center.
   41          6
                                   No pseudopotential on this center.
   42          1
                                   No pseudopotential on this center.
   43          6
                                   No pseudopotential on this center.
   44          1
                                   No pseudopotential on this center.
   45          6
                                   No pseudopotential on this center.
   46          1
                                   No pseudopotential on this center.
   47          6
                                   No pseudopotential on this center.
   48          1
                                   No pseudopotential on this center.
   49          6
                                   No pseudopotential on this center.
   50          6
                                   No pseudopotential on this center.
   51          1
                                   No pseudopotential on this center.
   52          6
                                   No pseudopotential on this center.
   53          1
                                   No pseudopotential on this center.
   54          6
                                   No pseudopotential on this center.
   55          1
                                   No pseudopotential on this center.
   56          6
                                   No pseudopotential on this center.
   57          1
                                   No pseudopotential on this center.
   58          6
                                   No pseudopotential on this center.
   59          1
                                   No pseudopotential on this center.
   60          6
                                   No pseudopotential on this center.
   61          6
                                   No pseudopotential on this center.
   62          1
                                   No pseudopotential on this center.
   63          6
                                   No pseudopotential on this center.
   64          1
                                   No pseudopotential on this center.
   65          6
                                   No pseudopotential on this center.
   66          1
                                   No pseudopotential on this center.
   67          6
                                   No pseudopotential on this center.
   68          1
                                   No pseudopotential on this center.
   69          6
                                   No pseudopotential on this center.
   70          1
                                   No pseudopotential on this center.
   71          6
                                   No pseudopotential on this center.
   72          6
                                   No pseudopotential on this center.
   73          1
                                   No pseudopotential on this center.
   74          6
                                   No pseudopotential on this center.
   75          1
                                   No pseudopotential on this center.
   76          6
                                   No pseudopotential on this center.
   77          1
                                   No pseudopotential on this center.
   78          6
                                   No pseudopotential on this center.
   79          1
[...]
 00267,-0.00000320,0.00000092,-0.00001279,0.00001396,0.00000566,0.00000
 214,-0.00000164,-0.00000091,0.00000767,-0.00000864,-0.00003165,-0.0000
 0251,-0.00001663,-0.00000762,-0.00010587,-0.00002920,-0.00015131,0.000
 04362,0.00002647,0.00000482,-0.00000551,-0.00000071,-0.00001874,-0.000
 01159,0.00003683,0.00002782,-0.00000338,0.00000626,0.00000677,-0.00002
 823,-0.00002134,0.00001182,-0.00000377,0.00000107,-0.00000269,0.000035
 35,-0.00000692,0.00000332,-0.00000435,0.00000551,-0.00000170,-0.000042
 07,0.00002952,0.00004339,-0.00000466,-0.00000013,-0.00000754,-0.000841
 48,-0.00044977,-0.00020337,-0.05980210,0.07006734,0.00474612,0.0061613
 3,-0.00671013,-0.00167609,0.00564061,0.00091870,-0.00347726,-0.0008812
 1,-0.00032029,0.00038393,0.00009285,-0.00038018,-0.00007247,0.05095208
 ,0.00006429,0.00000924,-0.00002562,-0.00000830,-0.00000527,0.00000449,
 0.00005627,-0.00000144,-0.00002686,-0.00000712,-0.00011089,-0.00051858
 ,-0.00086704,-0.00093931,-0.00053505,0.00000126,-0.00000209,0.00000027
 ,0.00000137,-0.00000115,-0.00000049,-0.00000070,-0.00000766,0.00000257
 ,0.00002531,-0.00003062,0.00000155,-0.00004901,-0.00002002,-0.00001608
 ,-0.00001642,-0.00000908,0.00000863,-0.00000199,0.00000246,-0.00000014
 ,-0.00000724,0.00001037,0.00001391,-0.00002035,-0.00001050,0.00003199,
 -0.00001034,-0.00000285,0.00000456,0.00000452,0.00000199,-0.00000367,0
 .00000027,0.00000472,-0.00000173,-0.00000111,0.00000069,-0.00000147,0.
 00000029,-0.00000203,-0.00000012,0.00000063,0.00000032,-0.00000088,0.0
 0000002,0.00000007,0.00000015,0.,-0.00000011,-0.00000004,-0.00000035,-
 0.00000016,0.00000033,-0.00000547,-0.00000331,-0.00000066,-0.00000154,
 0.00000123,-0.00000212,-0.00000500,0.00001644,-0.00000408,-0.00000256,
 0.00000425,0.00000038,0.00000103,-0.00000084,-0.00000114,-0.00000267,0
 .00000145,0.00000124,0.00000374,0.00000479,-0.00000411,-0.00002579,0.0
 0003453,0.00000471,0.00000962,0.00000550,-0.00000607,0.00000418,0.0000
 0963,0.00000095,-0.00000017,-0.00000153,0.00000127,-0.00000169,-0.0000
 0152,-0.00000087,0.00272246,-0.01031601,-0.00223874,0.00252411,0.00070
 819,0.00156847,-0.00081231,0.00044885,-0.00080092,0.00018326,-0.000039
 15,-0.00030186,-0.00004542,0.00004686,0.00004581,0.00001484,-0.0002141
 6,0.00006005,0.00000115,-0.00000729,-0.00000638,-0.00000679,-0.0000915
 0,0.00004125,0.00000520,0.00000060,0.00000192,-0.00001435,0.00003985,0
 .00001389,0.00000449,-0.00000618,-0.00000095,0.00007754,0.00009481,-0.
 00011390,0.00005176,-0.00000021,0.00003393,0.00014575,0.00011340,0.000
 24409,-0.00010565,-0.00002970,0.00002031,0.00001161,0.00000698,-0.0000
 1217,0.00002469,0.00001009,-0.00000399,-0.00000597,-0.00000419,0.00000
 008,0.00000532,-0.00001091,-0.00001216,0.00000179,-0.00000350,-0.00001
 180,-0.00007539,-0.00001140,-0.00003260,-0.00000299,-0.00000479,0.0000
 0881,0.00002209,0.00012917,0.00016088,0.00002597,-0.00020014,-0.000049
 74,0.00002832,-0.00001391,0.00004412,-0.00002178,-0.00002717,-0.000010
 48,0.00000656,-0.00000340,-0.00000223,-0.00000813,0.00001022,0.0000035
 9,-0.00000161,-0.00000451,0.00000519,-0.00001152,-0.00000361,0.0000049
 7,0.00000023,-0.00000496,0.00000184,-0.00001091,0.00000848,0.00000196,
 -0.00000217,-0.00000658,0.00000125,0.00001308,0.00001852,0.00000293,0.
 00000751,-0.00000842,-0.00000264,0.00004183,-0.00011951,0.00016515,-0.
 00001982,-0.00002037,0.00000241,0.00000055,0.00000254,0.00000045,-0.00
 000881,0.00000561,-0.00000524,0.00000301,-0.00000129,-0.00000073,-0.00
 000486,-0.00001722,0.00000397,0.00000129,-0.00000074,0.00000102,0.0000
 0682,-0.00001431,-0.00002546,0.00000121,-0.00000465,-0.00000490,0.0000
 4821,0.00002107,-0.00001174,0.00000376,-0.00000155,0.00000786,-0.00040
 534,0.00064722,0.00015245,0.07099228,-0.32122854,-0.04229014,0.0042555
 4,-0.00662725,0.00151972,0.00059274,0.00118730,-0.00277313,-0.00024880
 ,-0.00016550,0.00007352,0.00014121,-0.00036670,0.00014693,-0.07821391,
 0.33675426,-0.00010326,-0.00013094,0.00003202,-0.00000525,-0.00001090,
 0.00000073,-0.00020400,0.00013858,-0.00003582,-0.00002371,0.00068654,0
 .00081427,0.00048718,0.00158650,-0.00031580,0.00002710,-0.00004037,-0.
 00001430,0.00003435,-0.00000177,-0.00002617,0.00000822,0.00000153,-0.0
 0000712,0.00008982,-0.00009414,-0.00000123,0.00012425,-0.00007026,0.00
 005765,0.00003787,-0.00003483,0.00000401,0.00002525,-0.00002296,0.0000
 0823,0.00003154,-0.00007648,-0.00000060,0.00007678,0.00003147,-0.00003
 455,0.00003949,0.00000966,-0.00001029,-0.00001202,-0.00000471,0.000013
 27,0.00000042,-0.00002168,0.00000501,0.00000376,-0.00000404,0.00000448
 ,-0.00001805,0.00002087,-0.00000698,-0.00001127,0.00000009,0.00000399,
 0.00000087,0.00000038,-0.00000202,0.00000115,-0.00000137,0.00000110,0.
 00000163,0.00000238,-0.00000144,0.00001035,0.00000034,-0.00000109,0.00
 000413,-0.00000107,0.00000369,0.00002480,-0.00004613,0.00001498,0.0000
 0536,0.00000109,-0.00000418,-0.00002069,0.00003827,0.00000807,-0.00002
 619,-0.00000626,0.00002298,-0.00001336,-0.00001041,0.00001203,-0.00007
 763,0.00012756,0.00002081,-0.00005174,-0.00002581,0.00001055,0.0000328
 8,-0.00000646,-0.00000450,-0.00000454,-0.00000116,-0.00000078,-0.00000
 084,-0.00000476,0.00000806,-0.00502801,0.02142604,0.00669940,-0.004403
 60,0.00133795,-0.00195254,-0.00018765,0.00031932,-0.00039447,0.0002441
 1,-0.00036057,-0.00019095,0.00008180,-0.00004036,-0.00023898,-0.000044
 38,-0.00046671,0.00012287,-0.00002694,0.00002671,0.00002364,0.00027481
 ,0.00002113,-0.00015351,0.00003125,0.00003252,0.00000880,-0.00004556,0
 .00031741,-0.00012767,0.00001665,0.00002369,-0.00000485,-0.00033123,-0
 .00029413,0.00016292,0.00006032,0.00001395,0.00001874,-0.00010864,-0.0
 0028481,-0.00021174,0.00011606,-0.00002644,-0.00010022,-0.00000386,0.0
 0000978,-0.00000458,-0.00004778,-0.00001879,-0.00001644,0.00000164,0.0
 0001112,-0.00000246,0.00000100,0.00000940,0.00003184,-0.00000368,0.000
 00148,0.00000697,0.00004555,-0.00000123,-0.00002012,-0.00001329,-0.000
 00144,0.00000250,0.00000192,-0.00002165,0.00001483,-0.00006477,0.00009
 113,0.00005071,-0.00009056,-0.00000467,-0.00012362,0.00005929,0.000037
 47,0.00000639,-0.00000527,0.00001364,0.00000051,0.00000773,-0.00001816
 ,-0.00001388,0.00000467,0.00000800,-0.00001033,0.00001729,0.00000625,-
 0.00000905,0.00000040,0.00000566,-0.00000266,0.00000050,-0.00000776,-0
 .00001411,0.00000156,0.00000411,-0.00000062,-0.00001479,-0.00001330,0.
 00000840,-0.00001699,-0.00001002,-0.00000289,-0.00014533,0.00023426,-0
 .00039128,0.00002534,0.00004096,-0.00000281,0.00000253,-0.00000321,0.0
 0000512,0.00001540,-0.00001379,0.00000635,-0.00000509,0.00000277,0.000
 00451,0.00000116,0.00003410,-0.00000266,-0.00000247,0.00000170,-0.0000
 0130,-0.00000042,0.00002022,0.00005151,-0.00000213,0.00000948,0.000007
 33,-0.00007516,-0.00001571,0.00003677,-0.00000816,0.00000236,-0.000017
 55,-0.00015448,0.00024321,-0.00102866,0.00448253,-0.04130322,-0.060199
 64,0.00668043,-0.02567517,0.00094961,-0.00367291,-0.00246586,-0.003318
 62,0.00039060,0.00013686,-0.00007801,0.00035025,-0.00113220,-0.0000842
 2,-0.00056709,0.04488518,0.05956353,0.00015774,-0.00011159,-0.00002310
 ,-0.00000122,-0.00000305,-0.00000013,0.00002682,0.00001706,0.00003724,
 -0.00071476,-0.00032443,0.00030161,-0.00009967,0.00044325,0.00003429,-
 0.00000832,0.00000474,0.00000756,-0.00002504,-0.00000387,0.00001993,-0
 .00001156,-0.00003234,0.00001733,0.00000196,-0.00001290,0.00000263,-0.
 00001456,-0.00000826,-0.00000813,-0.00001711,-0.00001249,-0.00000815,-
 0.00003427,0.00001922,-0.00000821,-0.00003253,-0.00003730,-0.00000269,
 0.00004017,0.00003623,0.00003463,-0.00005800,0.00003424,-0.00001702,-0
 .00000729,0.00000182,0.00000430,0.00000231,0.00000229,-0.00001192,-0.0
 0000402,0.00000381,-0.00000230,0.00001651,-0.00002145,0.00001001,0.000
 01794,0.00000426,-0.00000262,-0.00000138,-0.00000220,0.00000058,-0.000
 00146,0.00000122,-0.00000068,-0.00000165,-0.00000167,0.00000178,-0.000
 01612,-0.00000113,-0.00000563,-0.00000476,0.00000290,-0.00000444,-0.00
 000366,0.00004043,-0.00001658,-0.00000137,0.00001329,0.00000464,0.0000
 1313,-0.00000665,-0.00000692,0.00001931,0.00000229,-0.00001596,0.00001
 218,0.00002784,-0.00001540,-0.00000957,0.00000658,-0.00000128,0.000031
 91,0.00000005,-0.00001829,0.00000114,0.00000330,0.00000043,0.00000075,
 -0.00000019,-0.00000011,0.00000072,0.00000095,0.00000166,0.00567099,0.
 00072907,-0.00315892,-0.00058614,-0.00042393,0.00053722,0.00000576,-0.
 00008498,-0.00001601,-0.00004143,0.00005848,0.00000732,-0.00000024,0.0
 0000338,0.00000233,-0.00001755,-0.00003313,0.00001441,0.00000031,-0.00
 000210,-0.00000105,0.00002880,-0.00002291,0.00000787,-0.00000055,-0.00
 000525,-0.00000504,-0.00000159,0.00001723,0.00001234,-0.00001042,-0.00
 000851,-0.00000763,0.00003232,-0.00001961,-0.00001388,-0.00000717,0.00
 000943,-0.00001370,-0.00001419,-0.00007106,-0.00006981,0.00002503,-0.0
 0002147,-0.00000546,0.00000385,-0.00000078,0.00000205,-0.00000689,0.00
 000648,-0.00001297,0.,0.00000314,-0.00000431,0.00000041,-0.00000213,0.
 00000459,0.00000207,-0.00000141,-0.00000139,0.00000298,0.00000188,-0.0
 0000898,-0.00000143,-0.00000219,0.00000441,-0.00002105,0.00002765,0.00
 003756,0.00000058,-0.00001535,0.00000060,0.00011324,-0.00011231,0.0001
 6358,-0.00004157,-0.00003359,-0.00000913,0.00000433,-0.00000354,0.0000
 0306,-0.00001577,0.00001600,0.00000844,-0.00000497,-0.00000212,0.00000
 381,-0.00000433,-0.00000124,0.00001653,0.00000167,-0.00000351,0.000000
 41,-0.00000113,0.00001602,-0.00001645,-0.00000238,-0.00000498,0.000001
 98,-0.00000249,0.00000474,0.00001816,-0.00000289,-0.00001043,0.0000035
 5,0.00002062,0.00000269,-0.00004523,0.00001836,-0.00000534,0.00001187,
 0.00000441,-0.00000405,-0.00001326,0.00000582,0.00000213,0.00000568,-0
 .00000462,0.00000233,-0.00000219,-0.00000202,-0.00000010,-0.00000016,-
 0.00000102,0.00000137,-0.00000081,0.00000350,0.00000141,-0.00000491,-0
 .00000044,0.00000103,0.00000197,-0.00002101,0.00001027,0.00001864,-0.0
 0000170,-0.00000119,0.00000292,0.00576268,0.00305206,-0.00125826,0.001
 70273,0.00432290,-0.00347213,-0.10620313,0.07376746,-0.10277372,0.0010
 7470,0.00238228,-0.00633475,-0.00011232,0.00007629,-0.00026242,-0.0030
 9407,-0.00132826,0.00155481,-0.00311760,-0.00107762,0.00166079,0.09958
 274,-0.00000262,-0.00006732,-0.00005631,-0.00000023,-0.00000037,0.0000
 0073,0.00002602,-0.00000399,-0.00001498,-0.00023378,-0.00015062,-0.000
 00888,-0.00022222,0.00037185,-0.00034659,0.00000132,-0.00000017,0.0000
 0007,0.00000414,-0.00000012,-0.00000255,0.00000073,-0.00000123,0.00000
 051,0.00000577,-0.00000717,0.00000073,-0.00001553,-0.00000634,-0.00000
 240,-0.00000327,0.00000094,0.00000652,0.00000597,-0.00000151,0.0000021
 5,0.00000107,0.00001587,0.00001631,-0.00000212,0.00002307,0.00002007,-
 0.00001794,0.00000570,0.00000035,0.00000184,0.00000172,-0.00000319,0.0
 0000292,0.00000631,-0.00000299,-0.00000182,0.00000119,-0.00000169,-0.0
 0000545,0.00000306,-0.00000321,-0.00000421,-0.00000043,-0.00000066,0.0
 0000038,0.00000067,0.00000012,0.00000035,-0.00000052,0.00000022,-0.000
 00009,0.00000023,-0.00000003,-0.00000336,-0.00000327,0.00000042,-0.000
 00119,0.00000092,-0.00000170,-0.00000575,0.00001081,-0.00000417,-0.000
 00107,0.00000151,0.00000168,-0.00000055,-0.00000083,-0.00000029,-0.000
 00579,0.00000014,0.00000337,-0.00000009,0.00000052,-0.00000098,-0.0000
 0558,0.00000690,0.00000093,0.00000411,0.00000305,-0.00000190,-0.000000
 66,0.00000160,0.00000260,0.00000039,-0.00000001,0.00000014,-0.00000027
 ,-0.00000008,-0.00000084,0.00070825,0.00032572,-0.00363830,-0.00049316
 ,-0.00067464,-0.00083990,0.00000794,0.00001129,0.00003858,0.00000539,0
 .00001086,0.00001589,0.00000016,0.00000554,-0.00000859,0.00000338,-0.0
 0001721,0.00001329,0.00000022,-0.00000660,-0.00000794,0.00000352,-0.00
 002048,0.00001093,-0.00000212,-0.00000336,-0.00000426,-0.00000260,-0.0
 0000029,0.00000429,-0.00000369,-0.00000329,-0.00000277,0.00000477,-0.0
 0001231,0.00000011,-0.00000068,0.00000301,-0.00000459,-0.00003461,-0.0
 0004031,-0.00005058,0.00002464,-0.00001470,-0.00001243,0.00000206,0.00
 000105,0.00000415,-0.00000299,0.00000158,-0.00000916,0.00000033,0.0000
 0239,-0.00000319,0.00000037,-0.00000041,0.00000094,0.00000143,-0.00000
 055,-0.00000002,0.00000887,0.00000706,-0.00000139,-0.00000008,-0.00000
 115,0.00000361,-0.00001004,0.00000254,0.00002213,0.00001448,0.00000637
 ,0.00000018,0.00003357,-0.00001115,0.00008142,-0.00002449,-0.00001824,
 -0.00000077,0.00000114,-0.00000424,0.00000147,-0.00000685,0.00000584,0
 .00000778,-0.00000270,-0.00000141,0.00000298,-0.00000904,-0.00000300,0
 .00000856,-0.00000027,-0.00000133,0.00000409,0.00001369,0.00001616,0.0
 0001451,-0.00000199,-0.00000580,0.00000122,-0.00000880,-0.00001396,-0.
 00002315,0.00002813,0.00001904,-0.00000720,0.00004983,-0.00001707,0.00
 002246,-0.00002275,-0.00001499,0.00003339,-0.00000333,-0.00000406,-0.0
 0000638,-0.00000767,-0.00000046,0.00000684,0.00000163,-0.00000021,-0.0
 0000155,-0.00000278,-0.00000054,-0.00000544,0.00000173,-0.00000183,-0.
 00000042,0.00000381,0.00001270,-0.00000095,-0.00000054,-0.00000203,0.0
 0000022,0.00001477,0.00004672,0.00001519,-0.00000038,0.00000150,-0.000
 00660,0.00297950,-0.00434001,-0.00246434,-0.00688885,0.01051365,-0.011
 93232,0.07393592,-0.13311000,0.10539889,0.01343506,-0.00878377,0.02249
 561,0.00057768,-0.00045912,0.00101058,-0.00143730,0.00064234,0.0004242
 1,-0.00111712,0.00036799,0.00082258,-0.08129884,0.13537306,-0.00008762
 ,-0.00001443,-0.00015764,-0.00000386,-0.00000020,-0.00000575,0.0000599
 3,0.00001350,0.00004791,0.00021064,0.00003167,-0.00019995,-0.00021484,
 0.00071823,0.00002089,-0.00000654,0.00000531,0.00000398,-0.00001617,-0
 .00000239,0.00001189,-0.00000769,-0.00002065,0.00000967,0.00000563,-0.
 00001353,0.00000012,-0.00003380,-0.00001885,-0.00003065,-0.00002192,-0
 .00001514,-0.00001253,-0.00002953,0.00001862,-0.00001006,-0.00001878,0
 .00000158,-0.00000905,-0.00001962,-0.00000561,0.00005181,-0.00001238,-
 0.00000775,0.00000178,0.00000648,0.,-0.00000006,-0.00000285,0.00000266
 ,-0.00000178,-0.00000121,0.00000233,-0.00000101,0.00001585,-0.00002072
 ,0.00001118,0.00001538,0.00000282,-0.00000118,-0.00000127,-0.00000205,
 0.00000062,-0.00000136,0.00000140,-0.00000065,-0.00000125,-0.00000161,
 0.00000110,-0.00000973,0.00000336,-0.00000542,-0.00000311,0.00000164,-
 0.00000168,-0.00000248,0.00002083,-0.00001230,-0.00000341,0.00000635,0
 .00000447,0.00000821,-0.00000784,-0.00000440,0.00001218,0.00000296,-0.
 00000943,0.00001077,0.00001897,-0.00000992,-0.00001173,0.00001097,0.00
 000310,0.00002379,0.00000279,-0.00001835,0.00000094,0.00000349,-0.0000
 0189,-0.00000012,-0.00000005,0.00000026,0.00000054,0.00000064,0.000000
 57,-0.00288947,-0.00358828,-0.00271518,0.00070838,-0.00082820,-0.00002
 958,0.00002553,0.00003500,-0.00001929,-0.00003393,-0.00002287,0.000044
 95,-0.00000440,0.00001124,-0.00001471,0.00001575,-0.00000169,0.0000122
 1,0.00000110,-0.00001719,-0.00000879,-0.00001094,-0.00003002,0.0000186
 7,-0.00000300,-0.00000529,-0.00000428,0.00000617,-0.00001771,0.0000109
 9,-0.00000454,-0.00000680,-0.00000224,0.00003506,-0.00001426,0.0000102
 5,0.00000489,0.00000633,-0.00000938,-0.00011807,-0.00006104,-0.0000671
 8,0.00009858,0.00002254,-0.00002597,-0.00000234,0.00000794,0.00001703,
 -0.00000225,-0.00001076,-0.00001227,0.00000734,0.00000401,-0.00000765,
 0.00001635,0.00000359,-0.00001158,0.00000187,0.00000377,-0.00000235,0.
 00000502,-0.00000661,0.00000248,0.00001242,0.00001256,-0.00001200,0.00
 002157,-0.00002867,-0.00006119,-0.00004993,0.00001391,0.00000953,-0.00
 003260,0.00006366,-0.00003873,0.00001762,0.00000775,0.00000301,-0.0000
 0185,-0.00000349,0.00000569,0.00000526,-0.00000341,0.00000267,0.000001
 52,0.00000034,-0.00000105,0.00000549,0.00000129,-0.00000454,-0.0000001
 1,0.00000215,-0.00000122,0.00000453,-0.00001053,0.00000439,0.00000350,
 0.00000592,-0.00000164,0.00000705,0.,-0.00001388,-0.00000218,0.0000056
 5,-0.00000150,0.00000425,0.00002094,-0.00000380,-0.00000169,0.00000626
 ,-0.00000147,0.00000033,-0.00000033,-0.00000393,0.00000064,0.00000362,
 -0.00000008,-0.00000030,0.00000042,0.00000051,-0.00000238,0.00000135,0
 .00000196,-0.00000042,0.00000032,0.00000009,-0.00000044,0.00000197,0.0
 0000302,-0.00000135,0.00000198,-0.00000085,-0.00000596,-0.00000046,0.0
 0000805,0.00000061,-0.00000089,-0.00000250,-0.00153997,-0.00205977,0.0
 0185431,-0.01232128,0.01560446,-0.01312066,-0.10319595,0.10553567,-0.2
 0622416,0.00293448,-0.00539613,0.00719531,0.00017621,-0.00028458,0.000
 21117,0.00146842,0.00075176,0.00000656,0.00167974,0.00056071,0.0003581
 5,0.11309659,-0.11103744,0.21296698\\0.00000306,0.00000189,-0.00000327
 ,-0.00000042,-0.00000388,-0.00000291,0.00000313,-0.00000151,-0.0000023
 0,-0.00000038,-0.00000362,-0.00000299,-0.00000163,0.00000051,-0.000000
 12,0.00000131,-0.00000148,-0.00000019,0.00000055,-0.00000082,-0.000000
 20,0.00000020,-0.00000172,0.00000059,0.00000235,0.00000052,-0.00000059
 ,-0.00000082,0.00000165,-0.00000123,0.00000194,0.00000028,-0.00000141,
 -0.00000021,-0.00000075,0.00000068,0.00000205,0.00000018,0.00000682,-0
 .00000290,0.00000156,0.00000476,-0.00000008,0.00000064,0.00000231,0.00
 000026,0.00000082,0.00000045,0.00000014,-0.00000057,0.00000075,-0.0000
 0006,-0.00000029,-0.00000039,-0.00000027,-0.00000172,-0.00000103,-0.00
 000052,-0.00000120,0.00000116,0.00000009,-0.00000115,-0.00000028,0.000
 00011,-0.00000104,0.00000017,-0.00000010,-0.00000070,-0.00000024,-0.00
 000114,0.00000026,-0.00000097,-0.00000040,0.00000040,0.00000004,0.0000
 0034,-0.00000065,-0.00000053,-0.00000132,-0.00000018,0.00000112,-0.000
 00090,0.00000188,-0.00000052,0.,-0.00000129,-0.00000032,0.00000116,0.0
 0000079,-0.00000002,0.00000052,-0.00000150,-0.00000078,-0.00000138,0.0
 0000046,-0.00000114,-0.00000192,-0.00000075,-0.00000062,0.00000083,-0.
 00000025,0.00000002,0.00000072,-0.00000082,0.00000049,0.00000035,0.000
 00235,-0.00000028,0.00000034,0.00000042,0.00000256,0.00000243,0.000000
 98,-0.00000105,0.00000040,-0.00000073,0.00000086,0.00000002,0.00000059
 ,0.00000037,0.00000098,-0.00000070,-0.00000050,-0.00000002,0.00000093,
 0.00000020,0.00000088,0.00000052,-0.00000069,0.00000096,0.00000019,-0.
 00000004,0.00000015,0.00000007,0.00000002,0.00000044,-0.00000027,-0.00
 000068,-0.00000093,-0.00000108,0.00000005,0.00000009,-0.00000002,0.000
 00015,0.00000485,0.00000033,0.00000232,-0.00000205,0.00000066,-0.00000
 007,-0.00000107,0.00000072,-0.00000108,0.00000095,-0.00000046,-0.00000
 087,0.00000027,0.00000060,0.00000037,-0.00000016,-0.00000013,-0.000000
 41,0.00000001,0.00000052,0.00000061,-0.00000054,-0.00000012,-0.0000012
 4,-0.00000005,0.00000108,0.00000018,-0.00000119,-0.00000138,0.00000002
 ,-0.00000044,0.00000037,0.00000005,-0.00000143,0.00000004,-0.00000356,
 -0.00000122,0.00000051,0.00000244,0.00000086,0.00000181,0.00000086,0.0
 0000082,0.00000192,0.00000221,-0.00000007,0.00000025,-0.00000012,-0.00
 000106,0.00000214,0.00000143,-0.00000044,0.00000015,-0.00000008,-0.000
 00063,0.00000103,-0.00000081,-0.00000062,0.00000061,0.00000009,0.00000
 028,0.00000091,0.00000130,0.00000045,-0.00000015,-0.00000052,-0.000001
 26,0.00000463,-0.00000124,0.00000197,-0.00000230,-0.00000142,-0.000001
 28,-0.00000034,-0.00000117,-0.00000119,0.00000102,0.00000105,0.0000000
 6,-0.00000031,-0.00000011,-0.00000143,-0.00000218,-0.00000082,-0.00000
 026,0.00000020,0.00000057,0.00000114,0.00000033,0.00000121,-0.00000119
 ,-0.00000033,-0.00000037,-0.00000387,-0.00000126,0.00000263,0.00000003
 ,-0.00000062,-0.00000205,-0.00000081,0.00000022,-0.00000012,0.00000088
 ,-0.00000003,0.00000087,-0.00000034,0.00000045,-0.00000068,-0.00000055
 ,-0.00000058,-0.00000044,-0.00000036,0.00000008,0.00000068,0.00000031,
 0.00000036,0.00000006,0.,-0.00000020,-0.00000033,0.00000019,0.00000023
 ,0.00000027\\\@


 EDUCATION IS NOT TRAINING BUT RATHER THE PROCESS THAT EQUIPS YOU TO
 ENTERTAIN YOURSELF, A FRIEND, OR AN IDEA.  -- WALLACE STERLING
 Job cpu time:       0 days 19 hours 44 minutes 32.0 seconds.
 File lengths (MBytes):  RWF=   9857 Int=      0 D2E=      0 Chk=     80 Scr=      1
 Normal termination of Gaussian 09 at Thu Jun  5 19:29:08 2025.
