 Entering Gaussian System, Link 0=g09
 Input=dppe_step1.com
 Output=dppe_step1.log
 Initial command:
 /cluster/apps/gaussian/g09/l1.exe "/scratch/258336748.tmpdir/Gau-38478.inp" -scrdir="/scratch/258336748.tmpdir/"
 Entering Link 1 = /cluster/apps/gaussian/g09/l1.exe PID=     38485.
  
 Copyright (c) 1988,1990,1992,1993,1995,1998,2003,2009,2013,
            Gaussian, Inc.  All Rights Reserved.
  
 This is part of the Gaussian(R) 09 program.  It is based on
 the Gaussian(R) 03 system (copyright 2003, Gaussian, Inc.),
 the Gaussian(R) 98 system (copyright 1998, Gaussian, Inc.),
 the Gaussian(R) 94 system (copyright 1995, Gaussian, Inc.),
 the Gaussian 92(TM) system (copyright 1992, Gaussian, Inc.),
 the Gaussian 90(TM) system (copyright 1990, Gaussian, Inc.),
 the Gaussian 88(TM) system (copyright 1988, Gaussian, Inc.),
 the Gaussian 86(TM) system (copyright 1986, Carnegie Mellon
 University), and the Gaussian 82(TM) system (copyright 1983,
 Carnegie Mellon University). Gaussian is a federally registered
 trademark of Gaussian, Inc.
  
 This software contains proprietary and confidential information,
 including trade secrets, belonging to Gaussian, Inc.
  
 This software is provided under written license and may be
 used, copied, transmitted, or stored only in accord with that
 written license.
  
 The following legend is applicable only to US Government
 contracts under FAR:
  
                    RESTRICTED RIGHTS LEGEND
  
 Use, reproduction and disclosure by the US Government is
 subject to restrictions as set forth in subparagraphs (a)
 and (c) of the Commercial Computer Software - Restricted
 Rights clause in FAR 52.227-19.
  
 Gaussian, Inc.
 340 Quinnipiac St., Bldg. 40, Wallingford CT 06492
  
  
 ---------------------------------------------------------------
 Warning -- This program may not be used in any manner that
 competes with the business of Gaussian, Inc. or will provide
 assistance to any competitor of Gaussian, Inc.  The licensee
 of this program is prohibited from giving any competitor of
 Gaussian, Inc. access to this program.  By using this program,
 the user acknowledges that Gaussian, Inc. is engaged in the
 business of creating and licensing software in the field of
 computational chemistry and represents and warrants to the
 licensee that it is not a competitor of Gaussian, Inc. and that
 it will not use this program in any manner prohibited above.
 ---------------------------------------------------------------
  

 Cite this work as:
 Gaussian 09, Revision D.01,
 M. J. Frisch, G. W. Trucks, H. B. Schlegel, G. E. Scuseria, 
 M. A. Robb, J. R. Cheeseman, G. Scalmani, V. Barone, B. Mennucci, 
 G. A. Petersson, H. Nakatsuji, M. Caricato, X. Li, H. P. Hratchian, 
 A. F. Izmaylov, J. Bloino, G. Zheng, J. L. Sonnenberg, M. Hada, 
 M. Ehara, K. Toyota, R. Fukuda, J. Hasegawa, M. Ishida, T. Nakajima, 
 Y. Honda, O. Kitao, H. Nakai, T. Vreven, J. A. Montgomery, Jr., 
 J. E. Peralta, F. Ogliaro, M. Bearpark, J. J. Heyd, E. Brothers, 
 K. N. Kudin, V. N. Staroverov, T. Keith, R. Kobayashi, J. Normand, 
 K. Raghavachari, A. Rendell, J. C. Burant, S. S. Iyengar, J. Tomasi, 
 M. Cossi, N. Rega, J. M. Millam, M. Klene, J. E. Knox, J. B. Cross, 
 V. Bakken, C. Adamo, J. Jaramillo, R. Gomperts, R. E. Stratmann, 
 O. Yazyev, A. J. Austin, R. Cammi, C. Pomelli, J. W. Ochterski, 
 R. L. Martin, K. Morokuma, V. G. Zakrzewski, G. A. Voth, 
 P. Salvador, J. J. Dannenberg, S. Dapprich, A. D. Daniels, 
 O. Farkas, J. B. Foresman, J. V. Ortiz, J. Cioslowski, 
 and D. J. Fox, Gaussian, Inc., Wallingford CT, 2013.
 
 ******************************************
 Gaussian 09:  ES64L-G09RevD.01 24-Apr-2013
                 8-May-2023 
 ******************************************
 %nprocshared=8
 Will use up to    8 processors via shared memory.
 %mem=16GB
 %chk=dppe_step1.chk
 ----------------------------------------------------------------------
 #p opt freq=noraman pbe1pbe genecp temperature=298 integral(grid=ultra
 fine) empiricaldispersion=gd3bj
 ----------------------------------------------------------------------
 1/14=-1,18=20,19=15,26=4,38=1,112=298000/1,3;
 2/9=110,12=2,17=6,18=5,40=1/2;
 3/5=7,11=2,16=1,17=8,25=1,30=1,71=1,74=-13,75=-5,124=41/1,2,3;
 4//1;
 5/5=2,38=5/2;
 6/7=2,8=2,9=2,10=2,28=1/1;
 7//1,2,3,16;
 1/14=-1,18=20,19=15,26=4/3(2);
 2/9=110/2;
 99//99;
 2/9=110/2;
 3/5=7,6=1,11=2,16=1,17=8,25=1,30=1,71=1,74=-13,75=-5,82=7,124=41/1,2,3;
 4/5=5,16=3,69=1/1;
 5/5=2,38=5/2;
 7//1,2,3,16;
 1/14=-1,18=20,19=15,26=4/3(-5);
 2/9=110/2;
 6/7=2,8=2,9=2,10=2,19=2,28=1/1;
 99/9=1/99;
 Leave Link    1 at Mon May  8 14:08:40 2023, MaxMem=  2147483648 cpu:         0.5
 (Enter /cluster/apps/gaussian/g09/l101.exe)
 -----
 title
 -----
 Symbolic Z-matrix:
 Charge =  0 Multiplicity = 1
 Pd                   -0.01533  -0.54743   0.34581 
 Cl                    0.59378  -1.85209   2.6613 
 S                     1.68953   0.90448   2.37268 
 P                    -0.65777  -2.0875   -1.13247 
 P                     2.15754  -0.71333  -0.57023 
 F                    -3.16733   3.39808  -0.68593 
 F                    -1.50848   5.44221  -1.27719 
 F                     1.09297   5.38227  -0.42157 
 F                     2.03007   3.23289   0.93947 
 O                     2.74632   0.35706   1.54126 
 O                     2.03105   1.95344   3.28285 
 O                    -5.75125   0.7099    2.35819 
 N                     0.31419   1.1077    1.59672 
 C                    -1.9266   -0.16293   0.9617 
 C                    -2.76032  -1.1356    1.4989 
 H                    -2.42495  -2.1656    1.56726 
 C                    -4.02615  -0.81912   1.95671 
 H                    -4.6768   -1.57721   2.36377 
 C                    -4.48529   0.49562   1.89763 
 C                    -6.27391   2.01515   2.29681 
 H                    -7.29668   1.93975   2.66301 
 H                    -6.28265   2.39695   1.27107 
 H                    -5.71273   2.7044    2.93632 
 C                    -3.64649   1.48529   1.4063 
 H                    -3.95678   2.51725   1.40584 
 C                    -2.37062   1.16446   0.93858 
 C                    -1.46979   2.25536   0.51108 
 C                    -1.8993    3.34763  -0.22664 
 C                    -1.05516   4.40541  -0.54669 
 C                     0.26484   4.37243  -0.11728 
 C                     0.72697   3.27964   0.59688 
 C                    -0.10546   2.19797   0.91167 
 C                     1.18741  -0.46193   3.51576 
 H                     2.07066  -0.72941   4.0904 
 H                     0.40168  -0.06511   4.15348 
 C                     1.8113   -1.62097  -2.1961 
 H                     1.3349   -0.93731  -2.90569 
 H                     2.74195  -1.98213  -2.64096 
 C                     0.8707   -2.78384  -1.90259 
 H                     1.33001  -3.46711  -1.17882 
 H                     0.62164  -3.34982  -2.80595 
 C                     2.55265   0.92246  -1.24859 
 C                     1.51166   1.55113  -1.93103 
 H                     0.55034   1.04568  -2.03086 
 C                     1.68786   2.81591  -2.46023 
 H                     0.88106   3.29496  -2.99666 
 C                     2.89421   3.47487  -2.28284 
 H                     3.02859   4.4687   -2.68228 
 C                     3.91079   2.87356  -1.55914 
 H                     4.83545   3.40426  -1.38862 
 C                     3.745     1.60203  -1.0385 
 H                     4.52061   1.14802  -0.44111 
 C                     3.73117  -1.54688  -0.18836 
 C                     3.80972  -2.38485   0.91584 
 H                     2.94782  -2.50154   1.55783 
 C                     4.98497  -3.05954   1.19631 
 H                     5.04201  -3.70759   2.05886 
 C                     6.08705  -2.90289   0.37317 
 H                     7.00778  -3.42206   0.5953 
 C                     6.00717  -2.08151  -0.74018 
 H                     6.86443  -1.96376  -1.38739 
 C                     4.83227  -1.41128  -1.02717 
 H                     4.77045  -0.779    -1.90245 
 C                    -1.56286  -3.55949  -0.58898 
 C                    -0.96102  -4.3179    0.41467 
 H                     0.00699  -4.01807   0.79918 
 C                    -1.60824  -5.42321   0.93143 
 H                    -1.13903  -6.00883   1.70756 
 C                    -2.86595  -5.77014   0.46119 
 H                    -3.37409  -6.63222   0.86646 
 C                    -3.47851  -5.00207  -0.51477 
 H                    -4.46573  -5.26231  -0.86655 
 C                    -2.83513  -3.89322  -1.03717 
 H                    -3.32198  -3.28284  -1.78376 
 C                    -1.56261  -1.41238  -2.55186 
 C                    -1.84964  -2.17324  -3.68227 
 H                    -1.55832  -3.21416  -3.72194 
 C                    -2.51536  -1.59694  -4.74857 
 H                    -2.73935  -2.18825  -5.62429 
 C                    -2.89622  -0.2646   -4.69604 
 H                    -3.4158    0.17858  -5.53229 
 C                    -2.61308   0.4964   -3.57361 
 H                    -2.9132    1.53243  -3.52935 
 C                    -1.94766  -0.07612  -2.5043 
 H                    -1.72617   0.5051   -1.61194 
 
 NAtoms=     85 NQM=       85 NQMF=       0 NMMI=      0 NMMIF=      0
                NMic=       0 NMicF=      0.
                    Isotopes and Nuclear Properties:
 (Nuclear quadrupole moments (NQMom) in fm**2, nuclear magnetic moments (NMagM)
  in nuclear magnetons)

  Atom         1           2           3           4           5           6           7           8           9          10
 IAtWgt=         106          35          32          31          31          19          19          19          19          16
 AtmWgt= 105.9032000  34.9688527  31.9720718  30.9737634  30.9737634  18.9984033  18.9984033  18.9984033  18.9984033  15.9949146
 NucSpn=           0           3           0           1           1           1           1           1           1           0
 AtZEff=   0.0000000   0.0000000   0.0000000   0.0000000   0.0000000   0.0000000   0.0000000   0.0000000   0.0000000   0.0000000
 NQMom=    0.0000000  -8.1650000   0.0000000   0.0000000   0.0000000   0.0000000   0.0000000   0.0000000   0.0000000   0.0000000
 NMagM=    0.0000000   0.8218740   0.0000000   1.1316000   1.1316000   2.6288670   2.6288670   2.6288670   2.6288670   0.0000000
 AtZNuc=  46.0000000  17.0000000  16.0000000  15.0000000  15.0000000   9.0000000   9.0000000   9.0000000   9.0000000   8.0000000

  Atom        11          12          13          14          15          16          17          18          19          20
 IAtWgt=          16          16          14          12          12           1          12           1          12          12
 AtmWgt=  15.9949146  15.9949146  14.0030740  12.0000000  12.0000000   1.0078250  12.0000000   1.0078250  12.0000000  12.0000000
 NucSpn=           0           0           2           0           0           1           0           1           0           0
 AtZEff=   0.0000000   0.0000000   0.0000000   0.0000000   0.0000000   0.0000000   0.0000000   0.0000000   0.0000000   0.0000000
 NQMom=    0.0000000   0.0000000   2.0440000   0.0000000   0.0000000   0.0000000   0.0000000   0.0000000   0.0000000   0.0000000
 NMagM=    0.0000000   0.0000000   0.4037610   0.0000000   0.0000000   2.7928460   0.0000000   2.7928460   0.0000000   0.0000000
 AtZNuc=   8.0000000   8.0000000   7.0000000   6.0000000   6.0000000   1.0000000   6.0000000   1.0000000   6.0000000   6.0000000

  Atom        21          22          23          24          25          26          27          28          29          30
 IAtWgt=           1           1           1          12           1          12          12          12          12          12
 AtmWgt=   1.0078250   1.0078250   1.0078250  12.0000000   1.0078250  12.0000000  12.0000000  12.0000000  12.0000000  12.0000000
 NucSpn=           1           1           1           0           1           0           0           0           0           0
 AtZEff=   0.0000000   0.0000000   0.0000000   0.0000000   0.0000000   0.0000000   0.0000000   0.0000000   0.0000000   0.0000000
 NQMom=    0.0000000   0.0000000   0.0000000   0.0000000   0.0000000   0.0000000   0.0000000   0.0000000   0.0000000   0.0000000
 NMagM=    2.7928460   2.7928460   2.7928460   0.0000000   2.7928460   0.0000000   0.0000000   0.0000000   0.0000000   0.0000000
 AtZNuc=   1.0000000   1.0000000   1.0000000   6.0000000   1.0000000   6.0000000   6.0000000   6.0000000   6.0000000   6.0000000

  Atom        31          32          33          34          35          36          37          38          39          40
 IAtWgt=          12          12          12           1           1          12           1           1          12           1
 AtmWgt=  12.0000000  12.0000000  12.0000000   1.0078250   1.0078250  12.0000000   1.0078250   1.0078250  12.0000000   1.0078250
 NucSpn=           0           0           0           1           1           0           1           1           0           1
 AtZEff=   0.0000000   0.0000000   0.0000000   0.0000000   0.0000000   0.0000000   0.0000000   0.0000000   0.0000000   0.0000000
 NQMom=    0.0000000   0.0000000   0.0000000   0.0000000   0.0000000   0.0000000   0.0000000   0.0000000   0.0000000   0.0000000
 NMagM=    0.0000000   0.0000000   0.0000000   2.7928460   2.7928460   0.0000000   2.7928460   2.7928460   0.0000000   2.7928460
 AtZNuc=   6.0000000   6.0000000   6.0000000   1.0000000   1.0000000   6.0000000   1.0000000   1.0000000   6.0000000   1.0000000

  Atom        41          42          43          44          45          46          47          48          49          50
 IAtWgt=           1          12          12           1          12           1          12           1          12           1
 AtmWgt=   1.0078250  12.0000000  12.0000000   1.0078250  12.0000000   1.0078250  12.0000000   1.0078250  12.0000000   1.0078250
 NucSpn=           1           0           0           1           0           1           0           1           0           1
 AtZEff=   0.0000000   0.0000000   0.0000000   0.0000000   0.0000000   0.0000000   0.0000000   0.0000000   0.0000000   0.0000000
 NQMom=    0.0000000   0.0000000   0.0000000   0.0000000   0.0000000   0.0000000   0.0000000   0.0000000   0.0000000   0.0000000
 NMagM=    2.7928460   0.0000000   0.0000000   2.7928460   0.0000000   2.7928460   0.0000000   2.7928460   0.0000000   2.7928460
 AtZNuc=   1.0000000   6.0000000   6.0000000   1.0000000   6.0000000   1.0000000   6.0000000   1.0000000   6.0000000   1.0000000

  Atom        51          52          53          54          55          56          57          58          59          60
 IAtWgt=          12           1          12          12           1          12           1          12           1          12
 AtmWgt=  12.0000000   1.0078250  12.0000000  12.0000000   1.0078250  12.0000000   1.0078250  12.0000000   1.0078250  12.0000000
 NucSpn=           0           1           0           0           1           0           1           0           1           0
 AtZEff=   0.0000000   0.0000000   0.0000000   0.0000000   0.0000000   0.0000000   0.0000000   0.0000000   0.0000000   0.0000000
 NQMom=    0.0000000   0.0000000   0.0000000   0.0000000   0.0000000   0.0000000   0.0000000   0.0000000   0.0000000   0.0000000
 NMagM=    0.0000000   2.7928460   0.0000000   0.0000000   2.7928460   0.0000000   2.7928460   0.0000000   2.7928460   0.0000000
 AtZNuc=   6.0000000   1.0000000   6.0000000   6.0000000   1.0000000   6.0000000   1.0000000   6.0000000   1.0000000   6.0000000

  Atom        61          62          63          64          65          66          67          68          69          70
 IAtWgt=           1          12           1          12          12           1          12           1          12           1
 AtmWgt=   1.0078250  12.0000000   1.0078250  12.0000000  12.0000000   1.0078250  12.0000000   1.0078250  12.0000000   1.0078250
 NucSpn=           1           0           1           0           0           1           0           1           0           1
 AtZEff=   0.0000000   0.0000000   0.0000000   0.0000000   0.0000000   0.0000000   0.0000000   0.0000000   0.0000000   0.0000000
 NQMom=    0.0000000   0.0000000   0.0000000   0.0000000   0.0000000   0.0000000   0.0000000   0.0000000   0.0000000   0.0000000
 NMagM=    2.7928460   0.0000000   2.7928460   0.0000000   0.0000000   2.7928460   0.0000000   2.7928460   0.0000000   2.7928460
 AtZNuc=   1.0000000   6.0000000   1.0000000   6.0000000   6.0000000   1.0000000   6.0000000   1.0000000   6.0000000   1.0000000

  Atom        71          72          73          74          75          76          77          78          79          80
 IAtWgt=          12           1          12           1          12          12           1          12           1          12
 AtmWgt=  12.0000000   1.0078250  12.0000000   1.0078250  12.0000000  12.0000000   1.0078250  12.0000000   1.0078250  12.0000000
 NucSpn=           0           1           0           1           0           0           1           0           1           0
 AtZEff=   0.0000000   0.0000000   0.0000000   0.0000000   0.0000000   0.0000000   0.0000000   0.0000000   0.0000000   0.0000000
 NQMom=    0.0000000   0.0000000   0.0000000   0.0000000   0.0000000   0.0000000   0.0000000   0.0000000   0.0000000   0.0000000
 NMagM=    0.0000000   2.7928460   0.0000000   2.7928460   0.0000000   0.0000000   2.7928460   0.0000000   2.7928460   0.0000000
 AtZNuc=   6.0000000   1.0000000   6.0000000   1.0000000   6.0000000   6.0000000   1.0000000   6.0000000   1.0000000   6.0000000

  Atom        81          82          83          84          85
 IAtWgt=           1          12           1          12           1
 AtmWgt=   1.0078250  12.0000000   1.0078250  12.0000000   1.0078250
 NucSpn=           1           0           1           0           1
 AtZEff=   0.0000000   0.0000000   0.0000000   0.0000000   0.0000000
 NQMom=    0.0000000   0.0000000   0.0000000   0.0000000   0.0000000
 NMagM=    2.7928460   0.0000000   2.7928460   0.0000000   2.7928460
 AtZNuc=   1.0000000   6.0000000   1.0000000   6.0000000   1.0000000
 Leave Link  101 at Mon May  8 14:08:41 2023, MaxMem=  2147483648 cpu:         6.1
 (Enter /cluster/apps/gaussian/g09/l103.exe)

 GradGradGradGradGradGradGradGradGradGradGradGradGradGradGradGradGradGrad
 Berny optimization.
 Initialization pass.
                           ----------------------------
                           !    Initial Parameters    !
                           ! (Angstroms and Degrees)  !
 --------------------------                            --------------------------
 ! Name  Definition              Value          Derivative Info.                !
 --------------------------------------------------------------------------------
 ! R1    R(1,4)                  2.2293         estimate D2E/DX2                !
 ! R2    R(1,5)                  2.3639         estimate D2E/DX2                !
 ! R3    R(1,13)                 2.1007         estimate D2E/DX2                !
 ! R4    R(1,14)                 2.0445         estimate D2E/DX2                !
 ! R5    R(2,33)                 1.7364         estimate D2E/DX2                !
 ! R6    R(3,10)                 1.4518         estimate D2E/DX2                !
 ! R7    R(3,11)                 1.4302         estimate D2E/DX2                !
 ! R8    R(3,13)                 1.5922         estimate D2E/DX2                !
 ! R9    R(3,33)                 1.8509         estimate D2E/DX2                !
 ! R10   R(4,39)                 1.8478         estimate D2E/DX2                !
 ! R11   R(4,64)                 1.8114         estimate D2E/DX2                !
 ! R12   R(4,75)                 1.8136         estimate D2E/DX2                !
 ! R13   R(5,36)                 1.894          estimate D2E/DX2                !
 ! R14   R(5,42)                 1.8144         estimate D2E/DX2                !
 ! R15   R(5,53)                 1.8212         estimate D2E/DX2                !
 ! R16   R(6,28)                 1.3496         estimate D2E/DX2                !
 ! R17   R(7,29)                 1.3469         estimate D2E/DX2                !
 ! R18   R(8,30)                 1.341          estimate D2E/DX2                !
 ! R19   R(9,31)                 1.3482         estimate D2E/DX2                !
 ! R20   R(12,19)                1.3641         estimate D2E/DX2                !
 ! R21   R(12,20)                1.4073         estimate D2E/DX2                !
 ! R22   R(13,32)                1.3543         estimate D2E/DX2                !
 ! R23   R(14,15)                1.3892         estimate D2E/DX2                !
 ! R24   R(14,26)                1.3999         estimate D2E/DX2                !
 ! R25   R(15,16)                1.0854         estimate D2E/DX2                !
 ! R26   R(15,17)                1.3828         estimate D2E/DX2                !
 ! R27   R(17,18)                1.0788         estimate D2E/DX2                !
 ! R28   R(17,19)                1.3939         estimate D2E/DX2                !
 ! R29   R(19,24)                1.3872         estimate D2E/DX2                !
 ! R30   R(20,21)                1.089          estimate D2E/DX2                !
 ! R31   R(20,22)                1.0945         estimate D2E/DX2                !
 ! R32   R(20,23)                1.095          estimate D2E/DX2                !
 ! R33   R(24,25)                1.0776         estimate D2E/DX2                !
 ! R34   R(24,26)                1.3963         estimate D2E/DX2                !
 ! R35   R(26,27)                1.4779         estimate D2E/DX2                !
 ! R36   R(27,28)                1.3863         estimate D2E/DX2                !
 ! R37   R(27,32)                1.4231         estimate D2E/DX2                !
 ! R38   R(28,29)                1.3906         estimate D2E/DX2                !
 ! R39   R(29,30)                1.3885         estimate D2E/DX2                !
 ! R40   R(30,31)                1.3848         estimate D2E/DX2                !
 ! R41   R(31,32)                1.4007         estimate D2E/DX2                !
 ! R42   R(33,34)                1.0871         estimate D2E/DX2                !
 ! R43   R(33,35)                1.087          estimate D2E/DX2                !
 ! R44   R(36,37)                1.0945         estimate D2E/DX2                !
 ! R45   R(36,38)                1.0929         estimate D2E/DX2                !
 ! R46   R(36,39)                1.5242         estimate D2E/DX2                !
 ! R47   R(39,40)                1.0962         estimate D2E/DX2                !
 ! R48   R(39,41)                1.0947         estimate D2E/DX2                !
 ! R49   R(42,43)                1.3945         estimate D2E/DX2                !
 ! R50   R(42,51)                1.3884         estimate D2E/DX2                !
 ! R51   R(43,44)                1.0907         estimate D2E/DX2                !
 ! R52   R(43,45)                1.3823         estimate D2E/DX2                !
 ! R53   R(45,46)                1.0808         estimate D2E/DX2                !
 ! R54   R(45,47)                1.386          estimate D2E/DX2                !
 ! R55   R(47,48)                1.0795         estimate D2E/DX2                !
 ! R56   R(47,49)                1.3852         estimate D2E/DX2                !
 ! R57   R(49,50)                1.0797         estimate D2E/DX2                !
 ! R58   R(49,51)                1.384          estimate D2E/DX2                !
 ! R59   R(51,52)                1.0792         estimate D2E/DX2                !
 ! R60   R(53,54)                1.3884         estimate D2E/DX2                !
 ! R61   R(53,62)                1.3908         estimate D2E/DX2                !
 ! R62   R(54,55)                1.081          estimate D2E/DX2                !
 ! R63   R(54,56)                1.3839         estimate D2E/DX2                !
 ! R64   R(56,57)                1.0804         estimate D2E/DX2                !
 ! R65   R(56,58)                1.3844         estimate D2E/DX2                !
 ! R66   R(58,59)                1.0801         estimate D2E/DX2                !
 ! R67   R(58,60)                1.3859         estimate D2E/DX2                !
 ! R68   R(60,61)                1.0806         estimate D2E/DX2                !
 ! R69   R(60,62)                1.3827         estimate D2E/DX2                !
 ! R70   R(62,63)                1.0815         estimate D2E/DX2                !
 ! R71   R(64,65)                1.3945         estimate D2E/DX2                !
 ! R72   R(64,73)                1.3896         estimate D2E/DX2                !
 ! R73   R(65,66)                1.0839         estimate D2E/DX2                !
 ! R74   R(65,67)                1.3812         estimate D2E/DX2                !
 ! R75   R(67,68)                1.0796         estimate D2E/DX2                !
 ! R76   R(67,69)                1.3868         estimate D2E/DX2                !
 ! R77   R(69,70)                1.0796         estimate D2E/DX2                !
 ! R78   R(69,71)                1.3848         estimate D2E/DX2                !
 ! R79   R(71,72)                1.0799         estimate D2E/DX2                !
 ! R80   R(71,73)                1.3843         estimate D2E/DX2                !
 ! R81   R(73,74)                1.0803         estimate D2E/DX2                !
 ! R82   R(75,76)                1.3925         estimate D2E/DX2                !
 ! R83   R(75,84)                1.3914         estimate D2E/DX2                !
 ! R84   R(76,77)                1.0816         estimate D2E/DX2                !
 ! R85   R(76,78)                1.3829         estimate D2E/DX2                !
 ! R86   R(78,79)                1.0801         estimate D2E/DX2                !
 ! R87   R(78,80)                1.3867         estimate D2E/DX2                !
 ! R88   R(80,81)                1.0797         estimate D2E/DX2                !
 ! R89   R(80,82)                1.3853         estimate D2E/DX2                !
 ! R90   R(82,83)                1.0795         estimate D2E/DX2                !
 ! R91   R(82,84)                1.3835         estimate D2E/DX2                !
 ! R92   R(84,85)                1.0877         estimate D2E/DX2                !
 ! A1    A(4,1,5)               87.6759         estimate D2E/DX2                !
 ! A2    A(4,1,14)              93.4559         estimate D2E/DX2                !
 ! A3    A(5,1,13)              98.1554         estimate D2E/DX2                !
 ! A4    A(13,1,14)             79.5768         estimate D2E/DX2                !
 ! A5    A(10,3,11)            117.8525         estimate D2E/DX2                !
 ! A6    A(10,3,13)            113.4411         estimate D2E/DX2                !
 ! A7    A(10,3,33)            105.8303         estimate D2E/DX2                !
 ! A8    A(11,3,13)            115.0131         estimate D2E/DX2                !
 ! A9    A(11,3,33)            102.311          estimate D2E/DX2                !
 ! A10   A(13,3,33)             99.2573         estimate D2E/DX2                !
 ! A11   A(1,4,39)             107.3577         estimate D2E/DX2                !
 ! A12   A(1,4,64)             120.4248         estimate D2E/DX2                !
 ! A13   A(1,4,75)             113.9277         estimate D2E/DX2                !
 ! A14   A(39,4,64)            103.4223         estimate D2E/DX2                !
 ! A15   A(39,4,75)            103.1085         estimate D2E/DX2                !
 ! A16   A(64,4,75)            106.7399         estimate D2E/DX2                !
 ! A17   A(1,5,36)             101.4345         estimate D2E/DX2                !
 ! A18   A(1,5,42)             106.3662         estimate D2E/DX2                !
 ! A19   A(1,5,53)             138.1662         estimate D2E/DX2                !
 ! A20   A(36,5,42)             98.6797         estimate D2E/DX2                !
 ! A21   A(36,5,53)             96.8122         estimate D2E/DX2                !
 ! A22   A(42,5,53)            107.6297         estimate D2E/DX2                !
 ! A23   A(19,12,20)           118.4006         estimate D2E/DX2                !
 ! A24   A(1,13,3)             108.9751         estimate D2E/DX2                !
 ! A25   A(1,13,32)            106.5281         estimate D2E/DX2                !
 ! A26   A(3,13,32)            128.0939         estimate D2E/DX2                !
 ! A27   A(1,14,15)            123.0832         estimate D2E/DX2                !
 ! A28   A(1,14,26)            118.0255         estimate D2E/DX2                !
 ! A29   A(15,14,26)           118.6822         estimate D2E/DX2                !
 ! A30   A(14,15,16)           120.2233         estimate D2E/DX2                !
 ! A31   A(14,15,17)           121.1435         estimate D2E/DX2                !
 ! A32   A(16,15,17)           118.6332         estimate D2E/DX2                !
 ! A33   A(15,17,18)           121.079          estimate D2E/DX2                !
 ! A34   A(15,17,19)           120.2247         estimate D2E/DX2                !
 ! A35   A(18,17,19)           118.6962         estimate D2E/DX2                !
 ! A36   A(12,19,17)           116.0765         estimate D2E/DX2                !
 ! A37   A(12,19,24)           124.6581         estimate D2E/DX2                !
 ! A38   A(17,19,24)           119.2587         estimate D2E/DX2                !
 ! A39   A(12,20,21)           105.6594         estimate D2E/DX2                !
 ! A40   A(12,20,22)           111.5532         estimate D2E/DX2                !
 ! A41   A(12,20,23)           111.5919         estimate D2E/DX2                !
 ! A42   A(21,20,22)           109.3783         estimate D2E/DX2                !
 ! A43   A(21,20,23)           109.1796         estimate D2E/DX2                !
 ! A44   A(22,20,23)           109.3816         estimate D2E/DX2                !
 ! A45   A(19,24,25)           120.6138         estimate D2E/DX2                !
 ! A46   A(19,24,26)           120.4796         estimate D2E/DX2                !
 ! A47   A(25,24,26)           118.8825         estimate D2E/DX2                !
 ! A48   A(14,26,24)           120.1449         estimate D2E/DX2                !
 ! A49   A(14,26,27)           120.7535         estimate D2E/DX2                !
 ! A50   A(24,26,27)           118.9635         estimate D2E/DX2                !
 ! A51   A(26,27,28)           123.1385         estimate D2E/DX2                !
 ! A52   A(26,27,32)           118.2397         estimate D2E/DX2                !
 ! A53   A(28,27,32)           118.5946         estimate D2E/DX2                !
 ! A54   A(6,28,27)            120.1098         estimate D2E/DX2                !
 ! A55   A(6,28,29)            117.6181         estimate D2E/DX2                !
 ! A56   A(27,28,29)           122.2574         estimate D2E/DX2                !
 ! A57   A(7,29,28)            120.4004         estimate D2E/DX2                !
 ! A58   A(7,29,30)            120.3972         estimate D2E/DX2                !
 ! A59   A(28,29,30)           119.1982         estimate D2E/DX2                !
 ! A60   A(8,30,29)            119.9365         estimate D2E/DX2                !
 ! A61   A(8,30,31)            120.3443         estimate D2E/DX2                !
 ! A62   A(29,30,31)           119.7014         estimate D2E/DX2                !
 ! A63   A(9,31,30)            118.7475         estimate D2E/DX2                !
 ! A64   A(9,31,32)            119.3752         estimate D2E/DX2                !
 ! A65   A(30,31,32)           121.799          estimate D2E/DX2                !
 ! A66   A(13,32,27)           118.1599         estimate D2E/DX2                !
 ! A67   A(13,32,31)           123.4495         estimate D2E/DX2                !
 ! A68   A(27,32,31)           118.3821         estimate D2E/DX2                !
 ! A69   A(2,33,3)             112.3263         estimate D2E/DX2                !
 ! A70   A(2,33,34)            109.9311         estimate D2E/DX2                !
 ! A71   A(2,33,35)            109.5027         estimate D2E/DX2                !
 ! A72   A(3,33,34)            106.7179         estimate D2E/DX2                !
 ! A73   A(3,33,35)            106.7935         estimate D2E/DX2                !
 ! A74   A(34,33,35)           111.5302         estimate D2E/DX2                !
 ! A75   A(5,36,37)            109.6814         estimate D2E/DX2                !
 ! A76   A(5,36,38)            110.6166         estimate D2E/DX2                !
 ! A77   A(5,36,39)            108.2482         estimate D2E/DX2                !
 ! A78   A(37,36,38)           108.2503         estimate D2E/DX2                !
 ! A79   A(37,36,39)           109.439          estimate D2E/DX2                !
 ! A80   A(38,36,39)           110.5952         estimate D2E/DX2                !
 ! A81   A(4,39,36)            107.6512         estimate D2E/DX2                !
 ! A82   A(4,39,40)            107.8371         estimate D2E/DX2                !
 ! A83   A(4,39,41)            110.5224         estimate D2E/DX2                !
 ! A84   A(36,39,40)           110.1277         estimate D2E/DX2                !
 ! A85   A(36,39,41)           112.0828         estimate D2E/DX2                !
 ! A86   A(40,39,41)           108.5362         estimate D2E/DX2                !
 ! A87   A(5,42,43)            115.2678         estimate D2E/DX2                !
 ! A88   A(5,42,51)            124.8698         estimate D2E/DX2                !
 ! A89   A(43,42,51)           119.6358         estimate D2E/DX2                !
 ! A90   A(42,43,44)           119.5929         estimate D2E/DX2                !
 ! A91   A(42,43,45)           120.3109         estimate D2E/DX2                !
 ! A92   A(44,43,45)           120.0882         estimate D2E/DX2                !
 ! A93   A(43,45,46)           120.0264         estimate D2E/DX2                !
 ! A94   A(43,45,47)           119.7999         estimate D2E/DX2                !
 ! A95   A(46,45,47)           120.1662         estimate D2E/DX2                !
 ! A96   A(45,47,48)           119.9146         estimate D2E/DX2                !
 ! A97   A(45,47,49)           119.9499         estimate D2E/DX2                !
 ! A98   A(48,47,49)           120.107          estimate D2E/DX2                !
 ! A99   A(47,49,50)           119.8453         estimate D2E/DX2                !
 ! A100  A(47,49,51)           120.4955         estimate D2E/DX2                !
 ! A101  A(50,49,51)           119.6548         estimate D2E/DX2                !
 ! A102  A(42,51,49)           119.7124         estimate D2E/DX2                !
 ! A103  A(42,51,52)           119.675          estimate D2E/DX2                !
 ! A104  A(49,51,52)           120.5767         estimate D2E/DX2                !
 ! A105  A(5,53,54)            119.4639         estimate D2E/DX2                !
 ! A106  A(5,53,62)            120.862          estimate D2E/DX2                !
 ! A107  A(54,53,62)           119.5845         estimate D2E/DX2                !
 ! A108  A(53,54,55)           119.4954         estimate D2E/DX2                !
 ! A109  A(53,54,56)           120.2309         estimate D2E/DX2                !
 ! A110  A(55,54,56)           120.2727         estimate D2E/DX2                !
 ! A111  A(54,56,57)           119.9394         estimate D2E/DX2                !
 ! A112  A(54,56,58)           120.0252         estimate D2E/DX2                !
 ! A113  A(57,56,58)           120.0353         estimate D2E/DX2                !
 ! A114  A(56,58,59)           120.1276         estimate D2E/DX2                !
 ! A115  A(56,58,60)           119.9228         estimate D2E/DX2                !
 ! A116  A(59,58,60)           119.9493         estimate D2E/DX2                !
 ! A117  A(58,60,61)           120.0024         estimate D2E/DX2                !
 ! A118  A(58,60,62)           120.1989         estimate D2E/DX2                !
 ! A119  A(61,60,62)           119.7987         estimate D2E/DX2                !
 ! A120  A(53,62,60)           120.0168         estimate D2E/DX2                !
 ! A121  A(53,62,63)           119.9884         estimate D2E/DX2                !
 ! A122  A(60,62,63)           119.9945         estimate D2E/DX2                !
 ! A123  A(4,64,65)            116.2466         estimate D2E/DX2                !
 ! A124  A(4,64,73)            123.7699         estimate D2E/DX2                !
 ! A125  A(65,64,73)           119.779          estimate D2E/DX2                !
 ! A126  A(64,65,66)           119.361          estimate D2E/DX2                !
 ! A127  A(64,65,67)           120.1502         estimate D2E/DX2                !
 ! A128  A(66,65,67)           120.4741         estimate D2E/DX2                !
 ! A129  A(65,67,68)           119.9619         estimate D2E/DX2                !
 ! A130  A(65,67,69)           119.8873         estimate D2E/DX2                !
 ! A131  A(68,67,69)           120.1475         estimate D2E/DX2                !
 ! A132  A(67,69,70)           119.9536         estimate D2E/DX2                !
 ! A133  A(67,69,71)           120.0912         estimate D2E/DX2                !
 ! A134  A(70,69,71)           119.9496         estimate D2E/DX2                !
 ! A135  A(69,71,72)           120.0213         estimate D2E/DX2                !
 ! A136  A(69,71,73)           120.3075         estimate D2E/DX2                !
 ! A137  A(72,71,73)           119.6695         estimate D2E/DX2                !
 ! A138  A(64,73,71)           119.7477         estimate D2E/DX2                !
 ! A139  A(64,73,74)           119.9897         estimate D2E/DX2                !
 ! A140  A(71,73,74)           120.2601         estimate D2E/DX2                !
 ! A141  A(4,75,76)            122.3276         estimate D2E/DX2                !
 ! A142  A(4,75,84)            117.9566         estimate D2E/DX2                !
 ! A143  A(76,75,84)           119.698          estimate D2E/DX2                !
 ! A144  A(75,76,77)           120.0045         estimate D2E/DX2                !
 ! A145  A(75,76,78)           119.8322         estimate D2E/DX2                !
 ! A146  A(77,76,78)           120.1618         estimate D2E/DX2                !
 ! A147  A(76,78,79)           119.7906         estimate D2E/DX2                !
 ! A148  A(76,78,80)           120.2265         estimate D2E/DX2                !
 ! A149  A(79,78,80)           119.9828         estimate D2E/DX2                !
 ! A150  A(78,80,81)           119.8159         estimate D2E/DX2                !
 ! A151  A(78,80,82)           120.1557         estimate D2E/DX2                !
 ! A152  A(81,80,82)           120.0283         estimate D2E/DX2                !
 ! A153  A(80,82,83)           120.2377         estimate D2E/DX2                !
 ! A154  A(80,82,84)           119.8158         estimate D2E/DX2                !
 ! A155  A(83,82,84)           119.946          estimate D2E/DX2                !
 ! A156  A(75,84,82)           120.2717         estimate D2E/DX2                !
 ! A157  A(75,84,85)           119.0018         estimate D2E/DX2                !
 ! A158  A(82,84,85)           120.7238         estimate D2E/DX2                !
 ! A159  L(4,1,13,14,-1)       173.0327         estimate D2E/DX2                !
 ! A160  L(5,1,14,13,-1)       177.7322         estimate D2E/DX2                !
 ! A161  L(4,1,13,14,-2)       187.4269         estimate D2E/DX2                !
 ! A162  L(5,1,14,13,-2)       171.777          estimate D2E/DX2                !
 ! D1    D(5,1,4,39)            10.9802         estimate D2E/DX2                !
 ! D2    D(5,1,4,64)           128.7296         estimate D2E/DX2                !
 ! D3    D(5,1,4,75)          -102.5136         estimate D2E/DX2                !
 ! D4    D(14,1,4,39)         -177.3795         estimate D2E/DX2                !
 ! D5    D(14,1,4,64)          -59.6301         estimate D2E/DX2                !
 ! D6    D(14,1,4,75)           69.1266         estimate D2E/DX2                !
 ! D7    D(39,4,13,3)          -34.2197         estimate D2E/DX2                !
 ! D8    D(39,4,13,32)         107.5251         estimate D2E/DX2                !
 ! D9    D(64,4,13,3)           87.5884         estimate D2E/DX2                !
 ! D10   D(64,4,13,32)        -130.6668         estimate D2E/DX2                !
 ! D11   D(75,4,13,3)         -147.2725         estimate D2E/DX2                !
 ! D12   D(75,4,13,32)          -5.5277         estimate D2E/DX2                !
 ! D13   D(4,1,5,36)            15.2311         estimate D2E/DX2                !
 ! D14   D(4,1,5,42)           117.9324         estimate D2E/DX2                !
 ! D15   D(4,1,5,53)           -98.81           estimate D2E/DX2                !
 ! D16   D(13,1,5,36)         -156.4345         estimate D2E/DX2                !
 ! D17   D(13,1,5,42)          -53.7332         estimate D2E/DX2                !
 ! D18   D(13,1,5,53)           89.5244         estimate D2E/DX2                !
 ! D19   D(36,5,14,15)          73.0714         estimate D2E/DX2                !
 ! D20   D(36,5,14,26)        -109.8928         estimate D2E/DX2                !
 ! D21   D(42,5,14,15)         174.6639         estimate D2E/DX2                !
 ! D22   D(42,5,14,26)          -8.3004         estimate D2E/DX2                !
 ! D23   D(53,5,14,15)         -43.1311         estimate D2E/DX2                !
 ! D24   D(53,5,14,26)         133.9047         estimate D2E/DX2                !
 ! D25   D(5,1,13,3)           -45.1456         estimate D2E/DX2                !
 ! D26   D(5,1,13,32)           96.3497         estimate D2E/DX2                !
 ! D27   D(14,1,13,3)          143.0774         estimate D2E/DX2                !
 ! D28   D(14,1,13,32)         -75.4273         estimate D2E/DX2                !
 ! D29   D(4,1,14,15)           58.8097         estimate D2E/DX2                !
 ! D30   D(4,1,14,26)         -126.5206         estimate D2E/DX2                !
 ! D31   D(13,1,14,15)        -128.6172         estimate D2E/DX2                !
 ! D32   D(13,1,14,26)          46.0526         estimate D2E/DX2                !
 ! D33   D(10,3,13,1)           41.1531         estimate D2E/DX2                !
 ! D34   D(10,3,13,32)         -89.5243         estimate D2E/DX2                !
 ! D35   D(11,3,13,1)         -179.0081         estimate D2E/DX2                !
 ! D36   D(11,3,13,32)          50.3145         estimate D2E/DX2                !
 ! D37   D(33,3,13,1)          -70.6811         estimate D2E/DX2                !
 ! D38   D(33,3,13,32)         158.6415         estimate D2E/DX2                !
 ! D39   D(10,3,33,2)          -60.4834         estimate D2E/DX2                !
 ! D40   D(10,3,33,34)          60.0556         estimate D2E/DX2                !
 ! D41   D(10,3,33,35)         179.4556         estimate D2E/DX2                !
 ! D42   D(11,3,33,2)          175.5353         estimate D2E/DX2                !
 ! D43   D(11,3,33,34)         -63.9257         estimate D2E/DX2                !
 ! D44   D(11,3,33,35)          55.4743         estimate D2E/DX2                !
 ! D45   D(13,3,33,2)           57.2371         estimate D2E/DX2                !
 ! D46   D(13,3,33,34)         177.7761         estimate D2E/DX2                !
 ! D47   D(13,3,33,35)         -62.8239         estimate D2E/DX2                !
 ! D48   D(1,4,39,36)          -42.7697         estimate D2E/DX2                !
 ! D49   D(1,4,39,40)           76.0295         estimate D2E/DX2                !
 ! D50   D(1,4,39,41)         -165.4784         estimate D2E/DX2                !
 ! D51   D(64,4,39,36)        -171.0903         estimate D2E/DX2                !
 ! D52   D(64,4,39,40)         -52.2911         estimate D2E/DX2                !
 ! D53   D(64,4,39,41)          66.201          estimate D2E/DX2                !
 ! D54   D(75,4,39,36)          77.8335         estimate D2E/DX2                !
 ! D55   D(75,4,39,40)        -163.3673         estimate D2E/DX2                !
 ! D56   D(75,4,39,41)         -44.8752         estimate D2E/DX2                !
 ! D57   D(1,4,64,65)          -54.432          estimate D2E/DX2                !
 ! D58   D(1,4,64,73)          120.3464         estimate D2E/DX2                !
 ! D59   D(39,4,64,65)          65.2936         estimate D2E/DX2                !
 ! D60   D(39,4,64,73)        -119.9281         estimate D2E/DX2                !
 ! D61   D(75,4,64,65)         173.6701         estimate D2E/DX2                !
 ! D62   D(75,4,64,73)         -11.5515         estimate D2E/DX2                !
 ! D63   D(1,4,75,76)          169.0278         estimate D2E/DX2                !
 ! D64   D(1,4,75,84)           -9.4279         estimate D2E/DX2                !
 ! D65   D(39,4,75,76)          53.0232         estimate D2E/DX2                !
 ! D66   D(39,4,75,84)        -125.4326         estimate D2E/DX2                !
 ! D67   D(64,4,75,76)         -55.5747         estimate D2E/DX2                !
 ! D68   D(64,4,75,84)         125.9696         estimate D2E/DX2                !
 ! D69   D(1,5,36,37)           73.6715         estimate D2E/DX2                !
 ! D70   D(1,5,36,38)         -166.9931         estimate D2E/DX2                !
 ! D71   D(1,5,36,39)          -45.6759         estimate D2E/DX2                !
 ! D72   D(42,5,36,37)         -35.0935         estimate D2E/DX2                !
 ! D73   D(42,5,36,38)          84.2418         estimate D2E/DX2                !
 ! D74   D(42,5,36,39)        -154.441          estimate D2E/DX2                !
 ! D75   D(53,5,36,37)        -144.1675         estimate D2E/DX2                !
 ! D76   D(53,5,36,38)         -24.8321         estimate D2E/DX2                !
 ! D77   D(53,5,36,39)          96.4851         estimate D2E/DX2                !
 ! D78   D(1,5,42,43)          -41.6402         estimate D2E/DX2                !
 ! D79   D(1,5,42,51)          132.8452         estimate D2E/DX2                !
 ! D80   D(36,5,42,43)          63.065          estimate D2E/DX2                !
 ! D81   D(36,5,42,51)        -122.4496         estimate D2E/DX2                !
 ! D82   D(53,5,42,43)         163.1097         estimate D2E/DX2                !
 ! D83   D(53,5,42,51)         -22.405          estimate D2E/DX2                !
 ! D84   D(1,5,53,54)            2.09           estimate D2E/DX2                !
 ! D85   D(1,5,53,62)          178.6333         estimate D2E/DX2                !
 ! D86   D(36,5,53,54)        -113.5552         estimate D2E/DX2                !
 ! D87   D(36,5,53,62)          62.9881         estimate D2E/DX2                !
 ! D88   D(42,5,53,54)         145.0577         estimate D2E/DX2                !
 ! D89   D(42,5,53,62)         -38.399          estimate D2E/DX2                !
 ! D90   D(20,12,19,17)       -178.7642         estimate D2E/DX2                !
 ! D91   D(20,12,19,24)          2.1883         estimate D2E/DX2                !
 ! D92   D(19,12,20,21)        177.1448         estimate D2E/DX2                !
 ! D93   D(19,12,20,22)         58.3795         estimate D2E/DX2                !
 ! D94   D(19,12,20,23)        -64.3078         estimate D2E/DX2                !
 ! D95   D(1,13,32,27)          60.1643         estimate D2E/DX2                !
 ! D96   D(1,13,32,31)        -120.9205         estimate D2E/DX2                !
 ! D97   D(3,13,32,27)        -168.261          estimate D2E/DX2                !
 ! D98   D(3,13,32,31)          10.6542         estimate D2E/DX2                !
 ! D99   D(1,14,15,16)          -2.8119         estimate D2E/DX2                !
 ! D100  D(1,14,15,17)         177.1407         estimate D2E/DX2                !
 ! D101  D(26,14,15,16)       -177.4485         estimate D2E/DX2                !
 ! D102  D(26,14,15,17)          2.5041         estimate D2E/DX2                !
 ! D103  D(1,14,26,24)        -177.1012         estimate D2E/DX2                !
 ! D104  D(1,14,26,27)          -1.418          estimate D2E/DX2                !
 ! D105  D(15,14,26,24)         -2.1914         estimate D2E/DX2                !
 ! D106  D(15,14,26,27)        173.4919         estimate D2E/DX2                !
 ! D107  D(14,15,17,18)        179.3242         estimate D2E/DX2                !
 ! D108  D(14,15,17,19)         -0.6187         estimate D2E/DX2                !
 ! D109  D(16,15,17,18)         -0.7225         estimate D2E/DX2                !
 ! D110  D(16,15,17,19)        179.3346         estimate D2E/DX2                !
 ! D111  D(15,17,19,12)        179.2975         estimate D2E/DX2                !
 ! D112  D(15,17,19,24)         -1.6006         estimate D2E/DX2                !
 ! D113  D(18,17,19,12)         -0.6468         estimate D2E/DX2                !
 ! D114  D(18,17,19,24)        178.4551         estimate D2E/DX2                !
 ! D115  D(12,19,24,25)          2.7179         estimate D2E/DX2                !
 ! D116  D(12,19,24,26)       -179.088          estimate D2E/DX2                !
 ! D117  D(17,19,24,25)       -176.3015         estimate D2E/DX2                !
 ! D118  D(17,19,24,26)          1.8927         estimate D2E/DX2                !
 ! D119  D(19,24,26,14)          0.0109         estimate D2E/DX2                !
 ! D120  D(19,24,26,27)       -175.7492         estimate D2E/DX2                !
 ! D121  D(25,24,26,14)        178.236          estimate D2E/DX2                !
 ! D122  D(25,24,26,27)          2.4758         estimate D2E/DX2                !
 ! D123  D(14,26,27,28)        142.9934         estimate D2E/DX2                !
 ! D124  D(14,26,27,32)        -38.9327         estimate D2E/DX2                !
 ! D125  D(24,26,27,28)        -41.2731         estimate D2E/DX2                !
 ! D126  D(24,26,27,32)        136.8008         estimate D2E/DX2                !
 ! D127  D(26,27,28,6)          -5.6146         estimate D2E/DX2                !
 ! D128  D(26,27,28,29)        175.8176         estimate D2E/DX2                !
 ! D129  D(32,27,28,6)         176.3179         estimate D2E/DX2                !
 ! D130  D(32,27,28,29)         -2.2498         estimate D2E/DX2                !
 ! D131  D(26,27,32,13)          3.8218         estimate D2E/DX2                !
 ! D132  D(26,27,32,31)       -175.1494         estimate D2E/DX2                !
 ! D133  D(28,27,32,13)       -178.015          estimate D2E/DX2                !
 ! D134  D(28,27,32,31)          3.0138         estimate D2E/DX2                !
 ! D135  D(6,28,29,7)            0.7336         estimate D2E/DX2                !
 ! D136  D(6,28,29,30)        -178.5245         estimate D2E/DX2                !
 ! D137  D(27,28,29,7)         179.3352         estimate D2E/DX2                !
 ! D138  D(27,28,29,30)          0.0771         estimate D2E/DX2                !
 ! D139  D(7,29,30,8)            0.5055         estimate D2E/DX2                !
 ! D140  D(7,29,30,31)        -177.9647         estimate D2E/DX2                !
 ! D141  D(28,29,30,8)         179.7636         estimate D2E/DX2                !
 ! D142  D(28,29,30,31)          1.2934         estimate D2E/DX2                !
 ! D143  D(8,30,31,9)           -2.1416         estimate D2E/DX2                !
 ! D144  D(8,30,31,32)        -178.9038         estimate D2E/DX2                !
 ! D145  D(29,30,31,9)         176.3223         estimate D2E/DX2                !
 ! D146  D(29,30,31,32)         -0.4399         estimate D2E/DX2                !
 ! D147  D(9,31,32,13)           2.6122         estimate D2E/DX2                !
 ! D148  D(9,31,32,27)        -178.4748         estimate D2E/DX2                !
 ! D149  D(30,31,32,13)        179.3547         estimate D2E/DX2                !
 ! D150  D(30,31,32,27)         -1.7324         estimate D2E/DX2                !
 ! D151  D(5,36,39,4)           57.8102         estimate D2E/DX2                !
 ! D152  D(5,36,39,40)         -59.5107         estimate D2E/DX2                !
 ! D153  D(5,36,39,41)         179.5536         estimate D2E/DX2                !
 ! D154  D(37,36,39,4)         -61.6899         estimate D2E/DX2                !
 ! D155  D(37,36,39,40)       -179.0109         estimate D2E/DX2                !
 ! D156  D(37,36,39,41)         60.0534         estimate D2E/DX2                !
 ! D157  D(38,36,39,4)         179.1407         estimate D2E/DX2                !
 ! D158  D(38,36,39,40)         61.8197         estimate D2E/DX2                !
 ! D159  D(38,36,39,41)        -59.116          estimate D2E/DX2                !
 ! D160  D(5,42,43,44)          -0.6551         estimate D2E/DX2                !
 ! D161  D(5,42,43,45)         178.3202         estimate D2E/DX2                !
 ! D162  D(51,42,43,44)       -175.4505         estimate D2E/DX2                !
 ! D163  D(51,42,43,45)          3.5248         estimate D2E/DX2                !
 ! D164  D(5,42,51,49)        -177.1173         estimate D2E/DX2                !
 ! D165  D(5,42,51,52)           0.7163         estimate D2E/DX2                !
 ! D166  D(43,42,51,49)         -2.8557         estimate D2E/DX2                !
 ! D167  D(43,42,51,52)        174.978          estimate D2E/DX2                !
 ! D168  D(42,43,45,46)        179.403          estimate D2E/DX2                !
 ! D169  D(42,43,45,47)         -1.5901         estimate D2E/DX2                !
 ! D170  D(44,43,45,46)         -1.6269         estimate D2E/DX2                !
 ! D171  D(44,43,45,47)        177.38           estimate D2E/DX2                !
 ! D172  D(43,45,47,48)       -179.0632         estimate D2E/DX2                !
 ! D173  D(43,45,47,49)         -1.0029         estimate D2E/DX2                !
 ! D174  D(46,45,47,48)         -0.0577         estimate D2E/DX2                !
 ! D175  D(46,45,47,49)        178.0026         estimate D2E/DX2                !
 ! D176  D(45,47,49,50)       -177.5736         estimate D2E/DX2                !
 ! D177  D(45,47,49,51)          1.6644         estimate D2E/DX2                !
 ! D178  D(48,47,49,50)          0.4829         estimate D2E/DX2                !
 ! D179  D(48,47,49,51)        179.7209         estimate D2E/DX2                !
 ! D180  D(47,49,51,42)          0.2814         estimate D2E/DX2                !
 ! D181  D(47,49,51,52)       -177.5324         estimate D2E/DX2                !
 ! D182  D(50,49,51,42)        179.5208         estimate D2E/DX2                !
 ! D183  D(50,49,51,52)          1.707          estimate D2E/DX2                !
 ! D184  D(5,53,54,55)          -2.4276         estimate D2E/DX2                !
 ! D185  D(5,53,54,56)         177.932          estimate D2E/DX2                !
 ! D186  D(62,53,54,55)       -179.0156         estimate D2E/DX2                !
 ! D187  D(62,53,54,56)          1.344          estimate D2E/DX2                !
 ! D188  D(5,53,62,60)        -178.2122         estimate D2E/DX2                !
 ! D189  D(5,53,62,63)           1.9773         estimate D2E/DX2                !
 ! D190  D(54,53,62,60)         -1.673          estimate D2E/DX2                !
 ! D191  D(54,53,62,63)        178.5165         estimate D2E/DX2                !
 ! D192  D(53,54,56,57)        179.7742         estimate D2E/DX2                !
 ! D193  D(53,54,56,58)         -0.1481         estimate D2E/DX2                !
 ! D194  D(55,54,56,57)          0.1367         estimate D2E/DX2                !
 ! D195  D(55,54,56,58)       -179.7857         estimate D2E/DX2                !
 ! D196  D(54,56,58,59)        179.474          estimate D2E/DX2                !
 ! D197  D(54,56,58,60)         -0.7247         estimate D2E/DX2                !
 ! D198  D(57,56,58,59)         -0.4483         estimate D2E/DX2                !
 ! D199  D(57,56,58,60)        179.353          estimate D2E/DX2                !
 ! D200  D(56,58,60,61)       -179.5707         estimate D2E/DX2                !
 ! D201  D(56,58,60,62)          0.393          estimate D2E/DX2                !
 ! D202  D(59,58,60,61)          0.231          estimate D2E/DX2                !
 ! D203  D(59,58,60,62)       -179.8053         estimate D2E/DX2                !
 ! D204  D(58,60,62,53)          0.8101         estimate D2E/DX2                !
 ! D205  D(58,60,62,63)       -179.3794         estimate D2E/DX2                !
 ! D206  D(61,60,62,53)       -179.2261         estimate D2E/DX2                !
 ! D207  D(61,60,62,63)          0.5843         estimate D2E/DX2                !
 ! D208  D(4,64,65,66)          -1.5018         estimate D2E/DX2                !
 ! D209  D(4,64,65,67)         177.1121         estimate D2E/DX2                !
 ! D210  D(73,64,65,66)       -176.5014         estimate D2E/DX2                !
 ! D211  D(73,64,65,67)          2.1125         estimate D2E/DX2                !
 ! D212  D(4,64,73,71)        -176.6909         estimate D2E/DX2                !
 ! D213  D(4,64,73,74)           2.7381         estimate D2E/DX2                !
 ! D214  D(65,64,73,71)         -2.0872         estimate D2E/DX2                !
 ! D215  D(65,64,73,74)        177.3418         estimate D2E/DX2                !
 ! D216  D(64,65,67,68)        179.9306         estimate D2E/DX2                !
 ! D217  D(64,65,67,69)         -0.7274         estimate D2E/DX2                !
 ! D218  D(66,65,67,68)         -1.4711         estimate D2E/DX2                !
 ! D219  D(66,65,67,69)        177.8709         estimate D2E/DX2                !
 ! D220  D(65,67,69,70)       -179.8178         estimate D2E/DX2                !
 ! D221  D(65,67,69,71)         -0.6787         estimate D2E/DX2                !
 ! D222  D(68,67,69,70)         -0.477          estimate D2E/DX2                !
 ! D223  D(68,67,69,71)        178.6621         estimate D2E/DX2                !
 ! D224  D(67,69,71,72)       -178.8285         estimate D2E/DX2                !
 ! D225  D(67,69,71,73)          0.6984         estimate D2E/DX2                !
 ! D226  D(70,69,71,72)          0.3106         estimate D2E/DX2                !
 ! D227  D(70,69,71,73)        179.8375         estimate D2E/DX2                !
 ! D228  D(69,71,73,64)          0.6915         estimate D2E/DX2                !
 ! D229  D(69,71,73,74)       -178.736          estimate D2E/DX2                !
 ! D230  D(72,71,73,64)       -179.7799         estimate D2E/DX2                !
 ! D231  D(72,71,73,74)          0.7925         estimate D2E/DX2                !
 ! D232  D(4,75,76,77)           1.9681         estimate D2E/DX2                !
 ! D233  D(4,75,76,78)        -178.4692         estimate D2E/DX2                !
 ! D234  D(84,75,76,77)       -179.6022         estimate D2E/DX2                !
 ! D235  D(84,75,76,78)         -0.0395         estimate D2E/DX2                !
 ! D236  D(4,75,84,82)         178.5153         estimate D2E/DX2                !
 ! D237  D(4,75,84,85)          -2.0831         estimate D2E/DX2                !
 ! D238  D(76,75,84,82)          0.0175         estimate D2E/DX2                !
 ! D239  D(76,75,84,85)        179.4191         estimate D2E/DX2                !
 ! D240  D(75,76,78,79)       -179.8824         estimate D2E/DX2                !
 ! D241  D(75,76,78,80)          0.0703         estimate D2E/DX2                !
 ! D242  D(77,76,78,79)         -0.3204         estimate D2E/DX2                !
 ! D243  D(77,76,78,80)        179.6323         estimate D2E/DX2                !
 ! D244  D(76,78,80,81)       -179.9915         estimate D2E/DX2                !
 ! D245  D(76,78,80,82)         -0.079          estimate D2E/DX2                !
 ! D246  D(79,78,80,81)         -0.039          estimate D2E/DX2                !
 ! D247  D(79,78,80,82)        179.8735         estimate D2E/DX2                !
 ! D248  D(78,80,82,83)       -179.7028         estimate D2E/DX2                !
 ! D249  D(78,80,82,84)          0.0566         estimate D2E/DX2                !
 ! D250  D(81,80,82,83)          0.2095         estimate D2E/DX2                !
 ! D251  D(81,80,82,84)        179.9689         estimate D2E/DX2                !
 ! D252  D(80,82,84,75)         -0.0261         estimate D2E/DX2                !
 ! D253  D(80,82,84,85)       -179.4172         estimate D2E/DX2                !
 ! D254  D(83,82,84,75)        179.7341         estimate D2E/DX2                !
 ! D255  D(83,82,84,85)          0.3429         estimate D2E/DX2                !
 --------------------------------------------------------------------------------
 Trust Radius=3.00D-01 FncErr=1.00D-07 GrdErr=1.00D-06
 Number of steps in this run=    510 maximum allowed number of steps=    510.
 GradGradGradGradGradGradGradGradGradGradGradGradGradGradGradGradGradGrad

 Leave Link  103 at Mon May  8 14:08:41 2023, MaxMem=  2147483648 cpu:         0.1
 (Enter /cluster/apps/gaussian/g09/l202.exe)
 Stoichiometry    C40H32ClF4NO3P2PdS
 Framework group  C1[X(C40H32ClF4NO3P2PdS)]
 Deg. of freedom   249
 Full point group                 C1      NOp   1
 Largest Abelian subgroup         C1      NOp   1
 Largest concise Abelian subgroup C1      NOp   1
                         Standard orientation:                         
 ---------------------------------------------------------------------
 Center     Atomic      Atomic             Coordinates (Angstroms)
 Number     Number       Type             X           Y           Z
 ---------------------------------------------------------------------
      1         46           0        0.005863   -0.505577   -0.373450
      2         17           0       -0.594489   -1.791325   -2.701765
      3         16           0       -1.660725    0.976498   -2.410309
      4         15           0        0.614806   -2.060510    1.103439
      5         15           0       -2.178186   -0.650411    0.519277
      6          9           0        3.193126    3.397251    0.710980
      7          9           0        1.552359    5.457819    1.295593
      8          9           0       -1.040607    5.432871    0.412908
      9          9           0       -1.988727    3.301545   -0.968736
     10          8           0       -2.732435    0.437424   -1.592646
     11          8           0       -1.980438    2.033961   -3.318545
     12          8           0        5.776713    0.694067   -2.320117
     13          7           0       -0.291211    1.159579   -1.619170
     14          6           0        1.927799   -0.140566   -0.967627
     15          6           0        2.755563   -1.120297   -1.501196
     16          1           0        2.408846   -2.145913   -1.578293
     17          6           0        4.029701   -0.816483   -1.944296
     18          1           0        4.675585   -1.580148   -2.348515
     19          6           0        4.503616    0.492433   -1.873736
     20          6           0        6.314005    1.992737   -2.246643
     21          1           0        7.339553    1.907112   -2.602664
     22          1           0        6.316594    2.369259   -1.218922
     23          1           0        5.767620    2.691758   -2.888361
     24          6           0        3.671451    1.489457   -1.386006
     25          1           0        3.993811    2.517669   -1.377040
     26          6           0        2.387120    1.181358   -0.933114
     27          6           0        1.494781    2.280653   -0.509318
     28          6           0        1.929416    3.364071    0.238389
     29          6           0        1.094486    4.430116    0.555146
     30          6           0       -0.221285    4.414866    0.111990
     31          6           0       -0.688791    3.331197   -0.612502
     32          6           0        0.134098    2.241378   -0.924246
     33          6           0       -1.162859   -0.389994   -3.555149
     34          1           0       -2.043190   -0.644145   -4.140228
     35          1           0       -0.365955    0.000719   -4.182692
     36          6           0       -1.859504   -1.570221    2.143942
     37          1           0       -1.382489   -0.895794    2.861914
     38          1           0       -2.798894   -1.922597    2.577324
     39          6           0       -0.929640   -2.742615    1.854180
     40          1           0       -1.389420   -3.416781    1.122214
     41          1           0       -0.696625   -3.316020    2.757135
     42          6           0       -2.561064    0.986505    1.201922
     43          6           0       -1.519901    1.599413    1.898276
     44          1           0       -0.565671    1.082167    2.005408
     45          6           0       -1.686710    2.863516    2.432116
     46          1           0       -0.879935    3.330318    2.979295
     47          6           0       -2.883324    3.537546    2.245692
     48          1           0       -3.010154    4.530870    2.648822
     49          6           0       -3.899338    2.951906    1.508473
     50          1           0       -4.815893    3.494330    1.331154
     51          6           0       -3.743116    1.681139    0.983047
     52          1           0       -4.517767    1.239314    0.375371
     53          6           0       -3.757454   -1.463417    0.116932
     54          6           0       -3.834388   -2.294848   -0.992312
     55          1           0       -2.967315   -2.418484   -1.625969
     56          6           0       -5.014519   -2.954212   -1.288339
     57          1           0       -5.070219   -3.597214   -2.154756
     58          6           0       -6.123151   -2.788698   -0.475817
     59          1           0       -7.047570   -3.295853   -0.710085
     60          6           0       -6.045174   -1.973916    0.642504
     61          1           0       -6.907662   -1.849303    1.281443
     62          6           0       -4.865530   -1.319039    0.945030
     63          1           0       -4.805358   -0.691932    1.824139
     64          6           0        1.508127   -3.540336    0.561757
     65          6           0        0.907864   -4.286550   -0.451923
     66          1           0       -0.052524   -3.973395   -0.844849
     67          6           0        1.547374   -5.396814   -0.967658
     68          1           0        1.079393   -5.972951   -1.751583
     69          6           0        2.795979   -5.760911   -0.486264
     70          1           0        3.298133   -6.626881   -0.890702
     71          6           0        3.407367   -5.005020    0.499891
     72          1           0        4.387761   -5.278653    0.860488
     73          6           0        2.771672   -3.891293    1.021318
     74          1           0        3.257896   -3.290455    1.776006
     75          6           0        1.512746   -1.403235    2.535533
     76          6           0        1.779091   -2.173094    3.664920
     77          1           0        1.475160   -3.210692    3.696232
     78          6           0        2.440443   -1.610038    4.740969
     79          1           0        2.648380   -2.208341    5.615903
     80          6           0        2.837444   -0.282038    4.699213
     81          1           0        3.353497    0.150780    5.543042
     82          6           0        2.574923    0.487866    3.577845
     83          1           0        2.887627    1.520497    3.542007
     84          6           0        1.913943   -0.071396    2.498807
     85          1           0        1.708558    0.516864    1.607209
 ---------------------------------------------------------------------
 Rotational constants (GHZ):      0.0575192      0.0542251      0.0412861
 Leave Link  202 at Mon May  8 14:08:41 2023, MaxMem=  2147483648 cpu:         0.0
 (Enter /cluster/apps/gaussian/g09/l301.exe)
 General basis read from cards:  (5D, 7F)
 Centers:      14     15     17     19     20     24     26     27     28     29
 Centers:      30     31     32     33     36     39     42     43     45     47
 Centers:      49     51     53     54     56     58     60     62     64     65
 Centers:      67     69     71     73     75     76     78     80     82     84
 Centers:      16     18     21     22     23     25     34     35     37     38
 Centers:      40     41     44     46     48     50     52     55     57     59
 Centers:      61     63     66     68     70     72     74     77     79     81
 Centers:      83     85      4      5      3      2     13      6      7      8
 Centers:       9     10     11     12
 def2svp
 ****
 Centers:       1
 def2tzvp
 ****
 ======================================================================================================
                                       Pseudopotential Parameters
 ======================================================================================================
  Center     Atomic      Valence      Angular      Power
  Number     Number     Electrons     Momentum     of R      Exponent        Coefficient   SO-Coeffient
 ======================================================================================================
    1         46           18
                                      G and up 
                                                     2        1.0000000        0.00000000    0.00000000
                                      S - G
                                                     2       12.4300000      240.22904000    0.00000000
                                                     2        6.1707590       35.17194300    0.00000000
                                      P - G
                                                     2       11.0800000      170.41727600    0.00000000
                                                     2        5.8295540       28.47213300    0.00000000
                                      D - G
                                                     2        9.5100000       69.01384500    0.00000000
                                                     2        4.1397810       11.75086200    0.00000000
                                      F - G
                                                     2       13.2700000      -31.92955400    0.00000000
                                                     2        6.6300000       -5.39821700    0.00000000
    2         17
                                   No pseudopotential on this center.
    3         16
                                   No pseudopotential on this center.
    4         15
                                   No pseudopotential on this center.
    5         15
                                   No pseudopotential on this center.
    6          9
                                   No pseudopotential on this center.
    7          9
                                   No pseudopotential on this center.
    8          9
                                   No pseudopotential on this center.
    9          9
                                   No pseudopotential on this center.
   10          8
                                   No pseudopotential on this center.
   11          8
                                   No pseudopotential on this center.
   12          8
                                   No pseudopotential on this center.
   13          7
                                   No pseudopotential on this center.
   14          6
                                   No pseudopotential on this center.
   15          6
                                   No pseudopotential on this center.
   16          1
                                   No pseudopotential on this center.
   17          6
                                   No pseudopotential on this center.
   18          1
                                   No pseudopotential on this center.
   19          6
                                   No pseudopotential on this center.
   20          6
                                   No pseudopotential on this center.
   21          1
                                   No pseudopotential on this center.
   22          1
                                   No pseudopotential on this center.
   23          1
                                   No pseudopotential on this center.
   24          6
                                   No pseudopotential on this center.
   25          1
                                   No pseudopotential on this center.
   26          6
                                   No pseudopotential on this center.
   27          6
                                   No pseudopotential on this center.
   28          6
                                   No pseudopotential on this center.
   29          6
                                   No pseudopotential on this center.
   30          6
                                   No pseudopotential on this center.
   31          6
                                   No pseudopotential on this center.
   32          6
                                   No pseudopotential on this center.
   33          6
                                   No pseudopotential on this center.
   34          1
                                   No pseudopotential on this center.
   35          1
                                   No pseudopotential on this center.
   36          6
                                   No pseudopotential on this center.
   37          1
                                   No pseudopotential on this center.
   38          1
                                   No pseudopotential on this center.
   39          6
                                   No pseudopotential on this center.
   40          1
                                   No pseudopotential on this center.
   41          1
                                   No pseudopotential on this center.
   42          6
                                   No pseudopotential on this center.
   43          6
                                   No pseudopotential on this center.
   44          1
                                   No pseudopotential on this center.
   45          6
                                   No pseudopotential on this center.
   46          1
                                   No pseudopotential on this center.
   47          6
                                   No pseudopotential on this center.
   48          1
                                   No pseudopotential on this center.
   49          6
                                   No pseudopotential on this center.
   50          1
                                   No pseudopotential on this center.
   51          6
                                   No pseudopotential on this center.
   52          1
                                   No pseudopotential on this center.
   53          6
                                   No pseudopotential on this center.
   54          6
                                   No pseudopotential on this center.
   55          1
                                   No pseudopotential on this center.
   56          6
                                   No pseudopotential on this center.
   57          1
                                   No pseudopotential on this center.
   58          6
                                   No pseudopotential on this center.
   59          1
                                   No pseudopotential on this center.
   60          6
                                   No pseudopotential on this center.
   61          1
                                   No pseudopotential on this center.
   62          6
                                   No pseudopotential on this center.
   63          1
                                   No pseudopotential on this center.
   64          6
                                   No pseudopotential on this center.
   65          6
                                   No pseudopotential on this center.
   66          1
                                   No pseudopotential on this center.
   67          6
                                   No pseudopotential on this center.
   68          1
                                   No pseudopotential on this center.
   69          6
                                   No pseudopotential on this center.
   70          1
                                   No pseudopotential on this center.
   71          6
                                   No pseudopotential on this center.
   72          1
                                   No pseudopotential on this center.
   73          6
                                   No pseudopotential on this center.
   74          1
                                   No pseudopotential on this center.
   75          6
                                   No pseudopotential on this center.
   76          6
                                   No pseudopotential on this center.
   77          1
                                   No pseudopotential on this center.
   78          6
                                   No pseudopotential on this center.
   79          1
                                   No pseudopotential on this center.
   80          6
                                   No pseudopotential on this center.
   81          1
                                   No pseudopotential on this center.
   82          6
                                   No pseudopotential on this center.
   83          1
                                   No pseudopotential on this center.
   84          6
                                   No pseudopotential on this center.
   85          1
                                   No pseudopotential on this center.
 ======================================================================================================
 Ernie: Thresh=  0.10000D-02 Tol=  0.10000D-05 Strict=F.
 There are  1002 symmetry adapted cartesian basis functions of A   symmetry.
 There are   944 symmetry adapted basis functions of A   symmetry.
   944 basis functions,  1646 primitive gaussians,  1002 cartesian basis functions
   210 alpha electrons      210 beta electrons
       nuclear repulsion energy      9734.4616949317 Hartrees.
 IExCor= 1009 DFT=T Ex+Corr=PBE1PBE ExCW=0 ScaHFX=  0.250000
 ScaDFX=  0.750000  0.750000  1.000000  1.000000 ScalE2=  1.000000  1.000000
 IRadAn=      5 IRanWt=     -1 IRanGd=            0 ICorTp=0 IEmpDi=141
 NAtoms=   85 NActive=   85 NUniq=   85 SFac= 1.00D+00 NAtFMM=   60 NAOKFM=T Big=T
 Integral buffers will be    131072 words long.
 Raffenetti 2 integral format.
 Two-electron integral symmetry is turned on.
 R6Disp:  Grimme-D3(BJ) Dispersion energy=       -0.1685954564 Hartrees.
 Nuclear repulsion after empirical dispersion term =     9734.2930994752 Hartrees.
 Leave Link  301 at Mon May  8 14:08:41 2023, MaxMem=  2147483648 cpu:         0.6
 (Enter /cluster/apps/gaussian/g09/l302.exe)
 NPDir=0 NMtPBC=     1 NCelOv=     1 NCel=       1 NClECP=     1 NCelD=      1
         NCelK=      1 NCelE2=     1 NClLst=     1 CellRange=     0.0.
 One-electron integrals computed using PRISM.
   1 Symmetry operations used in ECPInt.
 ECPInt:  NShTT=   92665 NPrTT=  344860 LenC2=   74177 LenP2D=  170723.
 LDataN:  DoStor=T MaxTD1= 7 Len=  274
 NBasis=   944 RedAO= T EigKep=  9.98D-05  NBF=   944
 NBsUse=   944 1.00D-06 EigRej= -1.00D+00 NBFU=   944
 Precomputing XC quadrature grid using
 IXCGrd= 4 IRadAn=           5 IRanWt=          -1 IRanGd=           0 AccXCQ= 0.00D+00.
 Defaulting to unpruned grid for atomic number  46.
 Generated NRdTot=       0 NPtTot=           0 NUsed=           0 NTot=          32
 NSgBfM=   929   930   930   932   935 MxSgAt=    85 MxSgA2=    85.
 Leave Link  302 at Mon May  8 14:08:46 2023, MaxMem=  2147483648 cpu:        39.0
 (Enter /cluster/apps/gaussian/g09/l303.exe)
 DipDrv:  MaxL=1.
 Leave Link  303 at Mon May  8 14:08:46 2023, MaxMem=  2147483648 cpu:         2.2
[...]
 0.00001632,0.00001412,-0.00002980,-0.00002982,-0.00001885,0.00000350,-
 0.00001082,0.00003102,-0.00000338,0.00000811,-0.00000192,-0.00000369,-
 0.00001192,0.00000046,0.00000377,0.00001375,-0.00000372,-0.00001267,-0
 .00000039,-0.00000475,-0.00000199,0.00000271,-0.00000866,-0.00000441,0
 .00000391,-0.00000369,-0.00000165,0.00000119,0.00000612,-0.00001237,-0
 .00000480,-0.00000041,0.00000222,0.00000086,0.00000564,-0.00000026,-0.
 00004792,-0.00001772,-0.00001575,-0.00000914,0.00000219,0.00002114,0.0
 0001933,0.00000144,-0.00000470,0.00000641,-0.00000035,0.00000284,-0.00
 000020,-0.00000131,0.00000102,0.00000249,-0.00000100,0.00000207,0.0000
 0029,0.00000487,-0.00000307,-0.00000990,0.00000045,0.00000110,0.000001
 44,0.00001716,-0.00001620,0.00000160,0.00000634,0.00000738,-0.00000060
 ,-0.00207657,-0.00053476,0.00027578,0.00046929,0.00050304,0.00000438,-
 0.00000018,-0.00002097,0.00008296,-0.00010726,-0.00004099,-0.00012977,
 0.00004219,0.00002572,-0.00004111,-0.00002131,-0.00003200,0.00003500,0
 .00001714,0.00000117,0.00002433,0.00025801,-0.00003350,0.00008715,-0.0
 0000270,0.00002101,0.00000790,-0.00001616,-0.00038024,0.00007374,0.000
 40112,0.00010679,0.00005647,-0.11170212,0.07994842,-0.01871065,0.02852
 788,0.00313020,0.03442391,0.00434409,0.00025954,-0.00431115,-0.0277610
 3,0.02674448,-0.01146751,-0.00088044,0.00039825,0.00033604,0.00146090,
 -0.03482230,-0.03916286,0.00523376,0.00108078,-0.00336103,-0.17700884,
 0.08865524,-0.10856829,-0.00205619,0.00254739,-0.00851988,0.35212324,-
 0.00062665,0.00002417,-0.00003726,0.00001414,0.00001141,0.00000820,-0.
 00008585,0.00003132,0.00005208,0.00968692,-0.00816032,0.00854654,0.000
 06016,0.00011264,0.00032908,-0.00017089,0.00009476,-0.00006252,-0.0000
 3388,0.00003874,-0.00004629,-0.00000420,-0.00000808,-0.00000292,-0.000
 01756,0.00000789,-0.00001295,0.00003792,-0.00001739,-0.00003226,0.0000
 1394,0.00000076,-0.00000852,-0.00022789,0.00009337,0.00009859,-0.00000
 476,0.00007346,0.00009719,0.00004357,-0.00009987,0.00155046,0.00069942
 ,0.00024168,-0.00030701,0.00001830,-0.00002333,0.00006885,-0.00034106,
 0.00024541,-0.00003559,-0.00000129,-0.00000107,0.00001018,0.00006487,-
 0.00026814,-0.00003142,0.00004064,-0.00010320,0.00000500,-0.00000639,0
 .00000696,0.00000054,-0.00000601,0.00001394,-0.00001008,0.00000260,0.0
 0001814,0.00000428,0.00026120,-0.00005646,-0.00010287,0.00000564,-0.00
 000212,0.00002813,0.00000082,-0.00015945,0.00024758,-0.00014808,-0.000
 29690,-0.00020304,0.00015502,-0.00014641,-0.00024307,0.00004826,0.0000
 8782,0.00010802,-0.00003520,0.00004390,-0.00006364,-0.00000350,-0.0000
 8067,0.00011400,0.00019646,-0.00003684,-0.00005432,0.00000033,-0.00000
 831,-0.00001813,0.00000845,-0.00000393,-0.00000403,-0.00000631,-0.0000
 0343,-0.00001236,-0.00003451,0.00018671,-0.00003937,0.00028440,0.00015
 330,-0.00011753,-0.00008193,0.00002735,-0.00011183,-0.00172436,0.00054
 790,-0.00042759,-0.00046323,0.00005174,-0.00010555,0.00021511,-0.00025
 299,-0.00031368,0.00000639,-0.00003360,-0.00007171,0.00002038,0.000017
 88,0.00001711,0.00001766,0.00001597,0.00002475,-0.00001849,-0.00000210
 ,-0.00001361,0.00000938,0.00000603,-0.00000058,0.00000079,-0.00000051,
 0.00000605,-0.00000310,-0.00000430,-0.00000104,-0.00001193,0.00000459,
 0.00000187,-0.00000314,-0.00000209,-0.00000198,-0.00000780,-0.00001166
 ,0.00000460,-0.00000020,-0.00000076,-0.00000418,0.00002120,-0.00002357
 ,-0.00011533,-0.00002851,-0.00000091,0.00001585,-0.00001254,0.00001123
 ,0.00000706,0.00000155,0.00000650,-0.00000063,-0.00000108,0.00000370,-
 0.00000148,-0.00000118,0.00000427,-0.00000264,-0.00000163,0.00000137,-
 0.00000222,0.00001413,-0.00000397,-0.00001163,-0.00000207,-0.00000027,
 0.00000135,0.00000922,-0.00001634,-0.00000088,0.00001253,0.00000455,-0
 .00000503,0.00047070,0.00014046,-0.00097033,0.00007446,-0.00005399,-0.
 00011564,0.00001290,-0.00003210,-0.00002059,-0.00004720,0.00009264,0.0
 0004792,-0.00001394,0.00003229,0.00000790,0.00007017,0.00008458,-0.000
 04764,-0.00001067,0.00001756,-0.00003737,-0.00028755,0.00011259,-0.000
 11201,0.00003269,0.00000614,-0.00002232,0.00027024,0.00035084,-0.00001
 253,-0.00042756,-0.00016885,-0.00030755,0.10282766,-0.30825932,-0.0160
 9773,-0.01940330,-0.03213922,-0.06283963,0.00070015,0.00104443,-0.0032
 6524,0.02789558,-0.04118524,0.02048421,0.00036138,-0.00067553,0.000816
 23,-0.01128673,0.05846245,0.01902633,0.00081205,-0.00028222,-0.0047841
 8,0.05594250,-0.15523801,0.02630814,0.01734005,-0.00579988,0.02079326,
 -0.15257657,0.62862264,-0.00104502,0.00000420,-0.00144067,0.00000599,-
 0.00009269,-0.00000746,-0.00028252,0.00014565,-0.00030319,-0.00631995,
 0.01636127,0.00311603,0.00016063,0.00044193,0.00036259,0.00009876,0.00
 008442,0.00005568,-0.00007208,0.00013934,-0.00011033,0.00015477,0.0002
 2558,-0.00005162,0.00029416,0.00000571,0.00004732,0.00009940,-0.000106
 16,0.00002281,0.00004242,-0.00010392,0.00005399,0.00003970,-0.00006742
 ,-0.00002782,0.00018560,-0.00018990,0.00018066,-0.00046708,0.00040674,
 -0.00191207,-0.00023721,-0.00033967,-0.00033374,-0.00003348,-0.0000187
 7,0.00003002,0.00015920,-0.00013687,0.00005589,0.00002167,-0.00000468,
 0.00005445,0.00003554,0.00018169,-0.00003293,-0.00000916,0.00003776,-0
 .00001118,-0.00000506,-0.00000650,0.00000544,0.00001073,0.00000041,0.0
 0001325,0.00000095,-0.00000813,-0.00001307,0.00020060,-0.00011000,0.00
 022087,0.00002102,-0.00000804,-0.00006866,-0.00024219,0.00051654,-0.00
 088903,0.00028455,0.00044636,0.00024245,-0.00008825,-0.00031806,0.0001
 1206,0.00005901,-0.00035746,0.00018602,-0.00010862,-0.00021274,0.00004
 833,-0.00032271,-0.00008332,-0.00021818,-0.00065262,0.00045573,-0.0000
 3137,0.00004053,0.00008927,0.00008044,-0.00002371,-0.00003047,0.000018
 46,-0.00000247,-0.00000886,-0.00000915,-0.00005019,0.00012979,0.000151
 21,-0.00002345,-0.00009745,-0.00000645,-0.00009706,-0.00017593,0.00001
 161,-0.00120876,0.00103586,-0.00266787,-0.00072041,0.00013534,0.000743
 88,0.00008363,-0.00007172,0.00008258,0.00001102,0.00001483,-0.00010976
 ,-0.00012315,-0.00010255,-0.00010591,-0.00008906,0.00006231,0.00014111
 ,0.00006405,-0.00001969,0.00000557,-0.00001226,-0.00001843,0.00002308,
 -0.00002951,-0.00001560,0.00000225,0.00000075,0.00000256,0.00000903,0.
 00000797,-0.00002269,0.00000824,-0.00000141,-0.00000678,0.00000340,0.0
 0002637,-0.00004449,0.00006173,0.00001167,0.00001630,0.00001126,-0.000
 02752,-0.00006195,-0.00009054,-0.00001417,-0.00001082,0.00001333,-0.00
 001556,0.00001992,0.00001939,0.00000447,-0.00000844,0.00000092,0.00000
 391,0.00000607,0.00000376,0.00000321,-0.00000163,0.00000288,0.00000067
 ,0.00000299,-0.00000066,0.00000830,-0.00000677,-0.00001478,0.00000110,
 0.00000228,0.00000292,0.00001113,-0.00001809,0.00000050,0.00001413,0.0
 0001434,0.00000031,-0.00267198,0.00122702,-0.00218361,0.00093711,0.000
 78775,-0.00033206,-0.00003811,0.00000165,0.00007364,-0.00021447,0.0001
 3369,-0.00022958,0.00003781,0.00011080,-0.00005586,-0.00001324,0.00003
 222,-0.00003283,0.00002055,0.00000901,-0.00000929,0.00007432,0.0000270
 0,0.00009273,0.00003511,0.00004064,-0.00001217,-0.00039876,-0.00013328
 ,0.00001136,0.00014628,-0.00017599,0.00006751,-0.00075217,-0.05600717,
 -0.10833388,0.01721912,-0.02665669,0.01715005,-0.00390976,-0.00412915,
 -0.00259992,-0.01036761,0.01882175,-0.01085806,0.00031460,0.00083449,0
 .00021705,-0.02177492,-0.01885715,-0.04065870,-0.00345230,-0.00443256,
 -0.00147156,-0.13427993,0.07996766,-0.22865697,0.00302078,-0.00366857,
 0.00627644,0.22590980,0.12384729,0.61912100,-0.00026563,0.00018621,-0.
 00069026,-0.00000142,-0.00001629,0.00016728,-0.00003122,-0.00009973,-0
 .00021679,-0.00162050,-0.00002124,0.00265361,-0.00037819,0.00010476,0.
 00027044,-0.00070271,-0.00043788,-0.00043401,-0.00006850,0.00006461,-0
 .00002780,0.00000402,0.00005010,-0.00001651,-0.00007005,0.00000651,-0.
 00000439,0.00001784,0.00003975,0.00006094,0.00001727,0.00006284,0.0000
 7566,0.00000217,-0.00001726,-0.00002639,-0.00009417,0.00005314,0.00004
 702,0.00077270,-0.00058433,-0.00065349,-0.00039172,0.00007999,0.000216
 36,0.00002487,0.00003095,-0.00000627,0.00003221,-0.00008869,-0.0000155
 8,-0.00003712,0.00000491,0.00000407,-0.00009644,0.00010695,0.00005969,
 0.00000208,0.00001493,0.00004259,0.00000468,0.00000099,-0.00000627,-0.
 00000863,0.00000759,-0.00000735,-0.00000230,-0.00000417,-0.00000894,-0
 .00044139,0.00005429,0.00009320,-0.00002297,0.00002950,0.00003603,0.00
 032921,-0.00001898,-0.00039263,-0.00004260,0.00021420,-0.00033902,0.00
 101720,0.00033101,0.00078386,0.00013174,-0.00004860,-0.00014631,-0.000
 04027,0.00000797,0.00007385,-0.00004636,-0.00005427,-0.00005533,0.0000
 6186,-0.00014344,0.00004028,-0.00000411,-0.00005556,-0.00001423,-0.000
 00196,0.00000739,-0.00000019,0.00001402,-0.00000082,0.00002467,0.00008
 090,0.00002977,-0.00006720,0.00006100,0.00001952,0.00001095,0.00000329
 ,-0.00003959,-0.00000511,-0.00021681,0.00035000,-0.00059456,-0.0001659
 1,0.00005593,0.00013041,0.00008676,-0.00002114,-0.00003453,0.00006717,
 -0.00001459,-0.00004751,-0.00006071,-0.00002434,-0.00004784,-0.0000885
 0,-0.00002541,0.00008464,0.00005059,-0.00000326,0.00002320,-0.00000393
 ,-0.00000350,-0.00000191,0.00000113,0.00001830,-0.00000470,0.00000802,
 0.00000541,0.00000148,0.00000702,0.00000260,0.00000782,0.00000357,0.00
 000287,0.00000134,-0.00000325,0.00000663,0.00001282,0.00000944,0.00000
 117,-0.00000241,0.00003744,-0.00000574,-0.00006275,-0.00000981,0.00000
 210,0.00001584,-0.00002625,0.00000043,-0.00002110,0.00000932,0.0000023
 4,-0.00001192,0.00000202,-0.00000044,0.00000296,0.00000584,-0.00000411
 ,-0.00000176,0.00000416,-0.00000192,0.00000031,0.00001008,-0.00000739,
 -0.00000400,0.00000583,-0.00000251,0.00000039,0.00000816,-0.00002050,0
 .00002804,-0.00000166,0.00000592,-0.00000031,0.00033207,-0.00024829,-0
 .00000244,-0.00011913,-0.00013291,0.00002851,-0.00001569,0.00003753,0.
 00000159,0.00001839,-0.00000361,0.00001054,-0.00000720,-0.00001124,0.0
 0000907,-0.00000936,-0.00001736,0.00000411,-0.00000568,0.00000076,-0.0
 0000050,-0.00005008,-0.00000077,-0.00000376,-0.00000951,-0.00001485,0.
 00000556,0.00011696,-0.00002133,0.00007371,-0.00002331,0.00003229,0.00
 000584,0.00513573,0.00587544,0.00885419,0.00364241,0.00422543,-0.00231
 323,0.00047680,0.00051256,0.00042904,-0.00096683,0.00038715,0.00038522
 ,-0.00064811,-0.00035041,0.00039182,0.00258769,0.00385973,-0.00494073,
 -0.00023381,-0.00054722,-0.00055433,0.00135925,-0.01005836,-0.01465305
 ,-0.00229833,-0.00151675,0.00197022,-0.06141484,-0.03061316,-0.0596852
 0,0.05418406,0.00020656,-0.00016831,-0.00006789,-0.00000270,-0.0000567
 1,-0.00006713,-0.00017328,0.00018152,-0.00011868,-0.00100163,-0.001503
 58,-0.00056999,0.00026582,0.00012772,-0.00008123,0.00012490,0.00007052
 ,0.00013020,-0.00002848,0.00006632,-0.00005829,0.00016434,0.00022626,-
 0.00005006,0.00029941,-0.00000460,0.00004442,0.00004880,-0.00010887,0.
 00000338,0.00001412,-0.00011747,0.00000465,0.00028868,-0.00014674,-0.0
 0014518,0.00044900,-0.00057849,0.00009855,-0.00046643,0.00051836,-0.00
 066813,-0.00029249,-0.00031531,0.00008480,-0.00002188,-0.00001750,-0.0
 0005908,0.00008406,-0.00017532,0.00009752,0.00003259,-0.00000076,0.000
 00481,-0.00013022,0.00001266,0.00013548,-0.00005765,0.00016169,-0.0000
 0523,0.00000751,-0.00001060,-0.00000057,0.00000547,-0.00001578,0.00002
 194,-0.00000914,-0.00002387,-0.00001120,0.00015410,-0.00006056,0.00003
 668,0.00005909,-0.00000598,-0.00006615,0.00016773,0.00074896,-0.001005
 85,0.00023670,0.00009474,-0.00030766,-0.00014685,-0.00070252,0.0001384
 0,0.00007285,-0.00030475,0.00012900,-0.00008616,-0.00020831,0.00005774
 ,-0.00028835,-0.00000880,-0.00019325,-0.00092751,0.00058316,-0.0000441
 7,0.00003249,0.00009816,0.00007662,-0.00001694,-0.00002805,0.00001686,
 0.00000620,-0.00000709,0.00001126,-0.00004142,-0.00002178,0.00003416,-
 0.00000535,-0.00000595,0.00001148,-0.00000537,0.00000682,0.00001602,-0
 .00001875,0.00032906,-0.00013897,-0.00008159,0.00004013,0.00007204,-0.
 00010663,0.00004360,0.00003727,-0.00005357,0.00004081,0.00002086,0.000
 00027,-0.00004228,-0.00001069,-0.00001304,0.00006116,0.00001130,0.0000
 0649,0.00000585,-0.00001887,-0.00000830,-0.00001483,0.00002202,-0.0000
 1965,-0.00003135,0.00000261,-0.00000648,-0.00000078,0.00000503,0.00000
 672,-0.00002043,-0.00000308,-0.00000276,-0.00000483,0.00000274,0.00001
 964,-0.00002293,0.00003068,0.00000391,0.00000864,0.00000651,-0.0000698
 1,-0.00003264,0.00006095,-0.00000610,-0.00000716,-0.00000729,0.0000154
 8,0.00000004,0.00001905,-0.00000356,-0.00000169,0.00000705,0.00000082,
 0.00000187,-0.00000142,-0.00000485,0.00000305,0.00000178,-0.00000191,0
 .00000181,-0.00000006,-0.00001030,0.00000389,0.00000457,-0.00000439,0.
 00000389,-0.00000011,-0.00001227,0.00001831,-0.00003289,0.00000358,0.0
 0000127,0.00000242,0.00019810,0.00000225,0.00027984,-0.00003176,-0.000
 04605,-0.00000721,0.00000208,-0.00000885,-0.00000161,0.00001795,-0.000
 02310,0.00002038,-0.00000512,-0.00000207,0.00000181,0.00002270,0.00001
 048,0.00000155,0.00000058,0.00000178,0.00000056,0.00000996,0.00001191,
 -0.00002299,0.00000480,0.00000197,-0.00000599,0.00001350,0.00007041,-0
 .00000248,0.00003482,0.00005074,-0.00003246,-0.00668415,-0.01039768,-0
 .02180330,0.00446041,-0.00339746,-0.00052116,-0.00028472,-0.00048625,-
 0.00115968,0.00019298,-0.00037627,0.00075691,-0.00036708,-0.00009960,0
 .00015049,0.00388927,0.00056175,0.00089777,0.00018035,0.00035197,0.000
 65545,0.00445481,0.01086551,0.01159507,-0.00156514,-0.00008275,0.00080
 514,-0.03160535,-0.13749274,-0.12987893,0.02840951,0.14180038,-0.00094
 597,0.00009268,-0.00038174,0.00003122,-0.00002089,0.00003593,-0.000328
 27,-0.00001279,-0.00011079,0.00134336,0.00133210,0.00034448,-0.0000387
 1,0.00001833,0.00033214,-0.00052529,0.00002728,-0.00027658,-0.00009421
 ,0.00017364,-0.00010663,0.00016664,0.00025877,-0.00009354,0.00011008,0
 .00002420,-0.00001799,0.00013292,-0.00003979,-0.00001397,0.00005134,0.
 00003313,0.00002921,-0.00054363,0.00021698,0.00020588,0.00009729,-0.00
 019919,-0.00005137,-0.00023913,0.00023269,-0.00181523,0.00036348,0.000
 24667,-0.00010814,-0.00001597,-0.00006067,0.00005700,-0.00045243,0.000
 25819,0.00016532,-0.00003193,-0.00000299,-0.00000063,0.00044315,-0.000
 49104,-0.00001247,0.00011539,-0.00023825,0.00000666,-0.00002597,0.0000
 1121,0.00001056,-0.00000386,0.00004310,-0.00001708,0.00000458,0.000042
 11,-0.00000466,0.00025088,-0.00006246,-0.00010555,-0.00002009,0.000028
 89,0.00002440,0.00043501,-0.00088828,-0.00246472,-0.00035697,-0.000667
 93,-0.00031329,0.00070255,-0.00046696,0.00023735,0.00025642,0.00003326
 ,0.00010140,-0.00013565,-0.00009842,-0.00002635,-0.00016878,-0.0000597
 0,0.00005830,-0.00018103,0.00032447,-0.00011339,0.00002555,0.00000442,
 0.00001495,-0.00000129,-0.00000892,0.00000503,-0.00000041,0.00000114,-
 0.00002990,0.00012833,-0.00006217,0.00000198,0.00005450,-0.00002026,-0
 .00010874,-0.00002672,-0.00000352,-0.00005861,-0.00000274,-0.00009156,
 -0.00001762,0.00001442,0.00002392,-0.00002651,0.00005158,-0.00001418,-
 0.00001928,0.00000786,-0.00014369,-0.00009057,0.00020733,0.00012398,0.
 00006333,0.00017642,-0.00001383,-0.00005687,-0.00007489,-0.00000660,-0
 .00002292,0.00001629,0.00003340,0.00000735,0.00001410,0.00000102,-0.00
 000495,-0.00001364,-0.00000580,-0.00000283,-0.00003762,0.00001245,-0.0
 0000215,-0.00000503,0.00000587,0.00000081,-0.00002600,0.00004448,-0.00
 005612,-0.00001954,-0.00001083,-0.00000716,0.00010617,0.00001442,-0.00
 015540,-0.00002083,0.00001542,0.00000536,-0.00001655,0.00001471,-0.000
 00043,0.00000634,0.00000054,-0.00001026,-0.00000242,0.00000316,0.00000
 166,0.00000192,-0.00000102,-0.00000142,0.00000261,-0.00000049,0.000000
 19,0.00001834,-0.00000614,-0.00001688,0.00000715,-0.00000389,0.0000014
 5,0.00002479,-0.00003778,0.00004206,0.00000333,0.00000396,-0.00000409,
 -0.00060704,0.00023680,-0.00020249,0.00014560,0.00015706,-0.00002438,-
 0.00002898,0.00002088,0.00001229,-0.00003196,0.00001603,-0.00009323,0.
 00000821,0.00002041,-0.00001061,-0.00001061,0.00001385,-0.00001578,-0.
 00000372,0.00000986,0.00000213,-0.00001482,-0.00001207,-0.00001101,0.0
 0000114,0.00000673,0.00001060,0.00003482,-0.00006002,0.00000994,-0.000
 04137,-0.00005563,0.00002669,-0.00038813,0.00009396,0.00182859,-0.0020
 8363,-0.00045015,0.00251625,-0.00016722,0.00022509,0.00029238,0.000193
 45,0.00095471,0.00010721,0.00034564,0.00015287,-0.00025075,-0.00444996
 ,0.00086708,0.00015686,0.00002389,-0.00044825,-0.00043006,-0.00307473,
 -0.01149536,-0.00925959,0.00193470,0.00065166,-0.00015560,-0.06178441,
 -0.13140914,-0.24532454,0.06898341,0.14054309,0.25578913\\0.00000095,0
 .00000402,-0.00000804,-0.00000171,-0.00000061,0.00000023,0.00000108,-0
 .00000015,-0.00001521,0.00000075,0.00000229,0.00000974,0.00000890,-0.0
 0000653,0.00000183,-0.00000408,-0.00000331,0.00000221,0.00000001,0.000
 00228,0.00000030,0.00000232,0.00000336,-0.00000059,-0.00000213,-0.0000
 0039,-0.00000069,-0.00000139,-0.00000363,0.00000364,-0.00000121,0.0000
 0456,0.00000217,-0.00000080,-0.00000015,0.00000102,-0.00000034,0.00001
 165,0.00001443,-0.00000126,-0.00000852,-0.00000344,-0.00000171,0.00000
 153,0.00000148,0.00000007,-0.00000061,-0.00000057,0.00000075,0.0000018
 2,0.00000049,-0.00000036,-0.00000060,-0.00000021,0.00000057,-0.0000033
 5,-0.00000029,-0.00000006,-0.00000120,0.00000131,-0.00000022,-0.000000
 02,0.00000094,-0.00000025,-0.00000012,0.00000022,0.00000011,-0.0000001
 2,0.00000075,0.00000307,0.00000433,-0.00000129,0.00000054,0.00000113,-
 0.00000097,-0.00000049,-0.00000351,0.00000382,0.00000074,0.00000550,-0
 .00000262,0.00000326,0.00000180,-0.00000038,-0.00000289,-0.00000114,0.
 00000126,-0.00000162,-0.00000810,0.00000366,0.00000185,0.00000467,-0.0
 0000153,0.00000896,-0.00001274,0.00000403,-0.00000055,-0.00000288,-0.0
 0000159,0.00000177,-0.00000021,-0.00000065,-0.00000142,-0.00000211,0.0
 0000135,-0.00000566,-0.00000096,0.00000136,0.00000067,-0.00000051,-0.0
 0000150,0.00000143,0.00000132,0.00000034,0.00000411,0.00000251,-0.0000
 0321,-0.00000123,-0.00000104,0.00000038,-0.00000151,-0.00000007,-0.000
 00051,-0.00001462,0.00000455,-0.00000847,0.00000400,0.00000166,0.00000
 248,-0.00000029,-0.00000049,-0.00000006,-0.00000083,-0.00000098,0.0000
 0214,0.00000026,0.00000042,0.,0.00000137,0.00000015,0.00000128,-0.0000
 0079,0.00000088,-0.00000008,-0.00000062,-0.00000029,-0.00000062,0.0000
 0066,-0.00000027,0.00000041,0.00000432,-0.00000088,0.00000144,-0.00000
 014,0.00000067,0.00000024,-0.00000326,-0.00000163,0.00000309,0.0000010
 9,-0.00000168,0.00000198,0.00000051,0.00000018,-0.00000154,-0.00000251
 ,0.00000181,-0.00000284,0.00000109,-0.00000092,-0.00000009,0.00000080,
 0.00000092,-0.00000309,-0.00000008,-0.00000071,0.00000009,0.00000115,-
 0.00000149,0.00000090,-0.00000005,0.,-0.00000102,-0.00000202,0.0000030
 0,-0.00000157,0.00000046,0.00000070,-0.00000048,-0.00000182,-0.0000021
 2,-0.00000422,-0.00000024,-0.00000050,0.00000028,0.00000021,0.00000035
 ,-0.00000012,0.00000057,0.00000062,-0.00000116,0.00000031,-0.00000046,
 -0.00000040,-0.00000081,0.00000052,-0.00000117,0.00000006,-0.00000058,
 -0.00000043,0.00000045,-0.00000060,0.00000005,-0.00000048,0.00000017,-
 0.00000070,0.00000181,-0.00000065,0.00000006,-0.00000056,0.00000060,-0
 .00000018,0.00000191,0.00000348,0.00000316,-0.00000213,0.00000077,-0.0
 0000210,0.00000021,0.,-0.00000049,0.00000027,0.00000048,0.00000145,-0.
 00000012,0.00000055,-0.00000072,0.00000060,0.00000053,0.00000141,-0.00
 000059,0.00000053,-0.00000018,-0.00000152,0.00000192,-0.00000270,0.000
 00008,0.00000043,0.00000254,0.00000024,-0.00000235,-0.00000022,0.00000
 003,0.00000054,-0.00000202\\\@


 YE HAVE SOWN MUCH, AND BRING IN LITTLE.
 YE EAT, BUT YE HAVE NOT ENOUGH.
 YE DRINK, BUT YE ARE NOT FILLED WITH DRINK.
 YE CLOTHE YOU, BUT THERE IS NONE WARM.
 AND HE THAT EARNETH WAGES EARNETH WAGES TO PUT
 IT INTO A BAG WITH HOLES.
                                     HAGGAI I,6
 Job cpu time:       1 days 23 hours 20 minutes  2.6 seconds.
 File lengths (MBytes):  RWF=   8165 Int=      0 D2E=      0 Chk=     72 Scr=      1
 Normal termination of Gaussian 09 at Tue May  9 02:40:03 2023.
