 Entering Gaussian System, Link 0=g09
 Input=ptbu3_step11.com
 Output=ptbu3_step11.log
 Initial command:
 /cluster/apps/gaussian/g09/l1.exe "/scratch/258336760.tmpdir/Gau-2397.inp" -scrdir="/scratch/258336760.tmpdir/"
 Entering Link 1 = /cluster/apps/gaussian/g09/l1.exe PID=      2404.
  
 Copyright (c) 1988,1990,1992,1993,1995,1998,2003,2009,2013,
            Gaussian, Inc.  All Rights Reserved.
  
 This is part of the Gaussian(R) 09 program.  It is based on
 the Gaussian(R) 03 system (copyright 2003, Gaussian, Inc.),
 the Gaussian(R) 98 system (copyright 1998, Gaussian, Inc.),
 the Gaussian(R) 94 system (copyright 1995, Gaussian, Inc.),
 the Gaussian 92(TM) system (copyright 1992, Gaussian, Inc.),
 the Gaussian 90(TM) system (copyright 1990, Gaussian, Inc.),
 the Gaussian 88(TM) system (copyright 1988, Gaussian, Inc.),
 the Gaussian 86(TM) system (copyright 1986, Carnegie Mellon
 University), and the Gaussian 82(TM) system (copyright 1983,
 Carnegie Mellon University). Gaussian is a federally registered
 trademark of Gaussian, Inc.
  
 This software contains proprietary and confidential information,
 including trade secrets, belonging to Gaussian, Inc.
  
 This software is provided under written license and may be
 used, copied, transmitted, or stored only in accord with that
 written license.
  
 The following legend is applicable only to US Government
 contracts under FAR:
  
                    RESTRICTED RIGHTS LEGEND
  
 Use, reproduction and disclosure by the US Government is
 subject to restrictions as set forth in subparagraphs (a)
 and (c) of the Commercial Computer Software - Restricted
 Rights clause in FAR 52.227-19.
  
 Gaussian, Inc.
 340 Quinnipiac St., Bldg. 40, Wallingford CT 06492
  
  
 ---------------------------------------------------------------
 Warning -- This program may not be used in any manner that
 competes with the business of Gaussian, Inc. or will provide
 assistance to any competitor of Gaussian, Inc.  The licensee
 of this program is prohibited from giving any competitor of
 Gaussian, Inc. access to this program.  By using this program,
 the user acknowledges that Gaussian, Inc. is engaged in the
 business of creating and licensing software in the field of
 computational chemistry and represents and warrants to the
 licensee that it is not a competitor of Gaussian, Inc. and that
 it will not use this program in any manner prohibited above.
 ---------------------------------------------------------------
  

 Cite this work as:
 Gaussian 09, Revision D.01,
 M. J. Frisch, G. W. Trucks, H. B. Schlegel, G. E. Scuseria, 
 M. A. Robb, J. R. Cheeseman, G. Scalmani, V. Barone, B. Mennucci, 
 G. A. Petersson, H. Nakatsuji, M. Caricato, X. Li, H. P. Hratchian, 
 A. F. Izmaylov, J. Bloino, G. Zheng, J. L. Sonnenberg, M. Hada, 
 M. Ehara, K. Toyota, R. Fukuda, J. Hasegawa, M. Ishida, T. Nakajima, 
 Y. Honda, O. Kitao, H. Nakai, T. Vreven, J. A. Montgomery, Jr., 
 J. E. Peralta, F. Ogliaro, M. Bearpark, J. J. Heyd, E. Brothers, 
 K. N. Kudin, V. N. Staroverov, T. Keith, R. Kobayashi, J. Normand, 
 K. Raghavachari, A. Rendell, J. C. Burant, S. S. Iyengar, J. Tomasi, 
 M. Cossi, N. Rega, J. M. Millam, M. Klene, J. E. Knox, J. B. Cross, 
 V. Bakken, C. Adamo, J. Jaramillo, R. Gomperts, R. E. Stratmann, 
 O. Yazyev, A. J. Austin, R. Cammi, C. Pomelli, J. W. Ochterski, 
 R. L. Martin, K. Morokuma, V. G. Zakrzewski, G. A. Voth, 
 P. Salvador, J. J. Dannenberg, S. Dapprich, A. D. Daniels, 
 O. Farkas, J. B. Foresman, J. V. Ortiz, J. Cioslowski, 
 and D. J. Fox, Gaussian, Inc., Wallingford CT, 2013.
 
 ******************************************
 Gaussian 09:  ES64L-G09RevD.01 24-Apr-2013
                 8-May-2023 
 ******************************************
 %nprocshared=8
 Will use up to    8 processors via shared memory.
 %mem=16GB
 %chk=ptbu3_step11.chk
 ----------------------------------------------------------------------
 #p opt freq=noraman pbe1pbe genecp temperature=298 integral(grid=ultra
 fine) empiricaldispersion=gd3bj
 ----------------------------------------------------------------------
 1/14=-1,18=20,19=15,26=4,38=1,112=298000/1,3;
 2/9=110,12=2,17=6,18=5,40=1/2;
 3/5=7,11=2,16=1,17=8,25=1,30=1,71=1,74=-13,75=-5,124=41/1,2,3;
 4//1;
 5/5=2,38=5/2;
 6/7=2,8=2,9=2,10=2,28=1/1;
 7//1,2,3,16;
 1/14=-1,18=20,19=15,26=4/3(2);
 2/9=110/2;
 99//99;
 2/9=110/2;
 3/5=7,6=1,11=2,16=1,17=8,25=1,30=1,71=1,74=-13,75=-5,82=7,124=41/1,2,3;
 4/5=5,16=3,69=1/1;
 5/5=2,38=5/2;
 7//1,2,3,16;
 1/14=-1,18=20,19=15,26=4/3(-5);
 2/9=110/2;
 6/7=2,8=2,9=2,10=2,19=2,28=1/1;
 99/9=1/99;
 Leave Link    1 at Mon May  8 14:09:10 2023, MaxMem=  2147483648 cpu:         0.5
 (Enter /cluster/apps/gaussian/g09/l101.exe)
 -----
 title
 -----
 Symbolic Z-matrix:
 Charge =  0 Multiplicity = 1
 Pd                   -0.60757  -0.17957   0.56914 
 P                    -2.23494   0.00453  -1.05035 
 C                    -3.5756    1.36939  -0.97597 
 C                    -2.91634   2.6804   -0.53834 
 H                    -2.02011   2.92347  -1.09422 
 H                    -3.62661   3.49733  -0.65753 
 H                    -2.65679   2.60643   0.51222 
 C                    -4.34374   1.59393  -2.27786 
 H                    -4.73716   0.66883  -2.6851 
 H                    -3.72495   2.07793  -3.02728 
 H                    -5.1876    2.2536   -2.07654 
 C                    -4.5696    1.03692   0.14143 
 H                    -5.27717   0.26831  -0.15108 
 H                    -4.0377    0.73354   1.04258 
 H                    -5.14388   1.93169   0.37918 
 C                    -1.29613   0.12739  -2.7301 
 C                    -0.03939  -0.75824  -2.64611 
 H                    -0.206    -1.75048  -3.05305 
 H                     0.76474  -0.30452  -3.22209 
 H                     0.30717  -0.85575  -1.61029 
 C                    -2.07194  -0.2577   -3.99015 
 H                    -1.4292   -0.0835   -4.85281 
 H                    -2.33935  -1.31018  -3.9942 
 H                    -2.97039   0.3339   -4.12313 
 C                    -0.80321   1.57106  -2.87268 
 H                    -0.12251   1.63967  -3.72001 
 H                    -1.61799   2.26418  -3.05632 
 H                    -0.2573    1.87178  -1.97863 
 C                    -3.13627  -1.68998  -0.98844 
 C                    -4.3463   -1.86754  -1.90581 
 H                    -4.11147  -1.66545  -2.94543 
 H                    -5.17775  -1.23609  -1.60724 
 H                    -4.68222  -2.90208  -1.83611 
 C                    -3.56746  -1.95983   0.46029 
 H                    -3.75692  -3.02575   0.58118 
 H                    -4.47348  -1.43628   0.7408 
 H                    -2.7702   -1.69483   1.15624 
 C                    -2.08699  -2.75493  -1.32657 
 H                    -2.47669  -3.74098  -1.07596 
 H                    -1.84063  -2.76279  -2.3832 
 H                    -1.18038  -2.60551  -0.73243 
 C                     0.38185   1.5881    0.46652 
 C                    -0.05208   2.74337   1.08285 
 H                    -1.00823   2.77865   1.58881 
 C                     0.72554   3.89735   1.08546 
 H                     0.3372    4.78245   1.56345 
 C                     1.97886   3.88757   0.4892 
 C                     2.4732    2.68906  -0.02516 
 H                     3.48691   2.67187  -0.39058 
 C                     1.70168   1.53671  -0.01292 
 C                     2.29528   0.23272  -0.35193 
 C                     3.14495   0.0179   -1.42319 
 C                     3.64991  -1.24477  -1.71751 
 C                     3.27985  -2.32065  -0.9209 
 C                     2.44112  -2.12461   0.16622 
 C                     1.94507  -0.85578   0.49941 
 N                     1.18282  -0.5907    1.59558 
 S                     0.39956  -1.69131   2.45436 
 O                    -0.64333  -2.30051   1.64653 
 O                     1.17888  -2.52704   3.30919 
 C                    -0.42269  -0.58014   3.68662 
 Cl                   -1.73509   0.32304   3.00183 
 H                     0.34174   0.10273   4.05027 
 H                    -0.79289  -1.2222    4.48218 
 F                     2.06475  -3.19944   0.88856 
 F                     3.72365  -3.55096  -1.21024 
 F                     4.45731  -1.42888  -2.77679 
 F                     3.45696   1.0344   -2.24702 
 O                     2.81679   4.95688   0.40523 
 C                     2.38809   6.18782   0.93401 
 H                     3.1949    6.89088   0.73386 
 H                     2.22333   6.12665   2.01474 
 H                     1.47314   6.53862   0.44573 
 
 NAtoms=     73 NQM=       73 NQMF=       0 NMMI=      0 NMMIF=      0
                NMic=       0 NMicF=      0.
                    Isotopes and Nuclear Properties:
 (Nuclear quadrupole moments (NQMom) in fm**2, nuclear magnetic moments (NMagM)
  in nuclear magnetons)

  Atom         1           2           3           4           5           6           7           8           9          10
 IAtWgt=         106          31          12          12           1           1           1          12           1           1
 AtmWgt= 105.9032000  30.9737634  12.0000000  12.0000000   1.0078250   1.0078250   1.0078250  12.0000000   1.0078250   1.0078250
 NucSpn=           0           1           0           0           1           1           1           0           1           1
 AtZEff=   0.0000000   0.0000000   0.0000000   0.0000000   0.0000000   0.0000000   0.0000000   0.0000000   0.0000000   0.0000000
 NQMom=    0.0000000   0.0000000   0.0000000   0.0000000   0.0000000   0.0000000   0.0000000   0.0000000   0.0000000   0.0000000
 NMagM=    0.0000000   1.1316000   0.0000000   0.0000000   2.7928460   2.7928460   2.7928460   0.0000000   2.7928460   2.7928460
 AtZNuc=  46.0000000  15.0000000   6.0000000   6.0000000   1.0000000   1.0000000   1.0000000   6.0000000   1.0000000   1.0000000

  Atom        11          12          13          14          15          16          17          18          19          20
 IAtWgt=           1          12           1           1           1          12          12           1           1           1
 AtmWgt=   1.0078250  12.0000000   1.0078250   1.0078250   1.0078250  12.0000000  12.0000000   1.0078250   1.0078250   1.0078250
 NucSpn=           1           0           1           1           1           0           0           1           1           1
 AtZEff=   0.0000000   0.0000000   0.0000000   0.0000000   0.0000000   0.0000000   0.0000000   0.0000000   0.0000000   0.0000000
 NQMom=    0.0000000   0.0000000   0.0000000   0.0000000   0.0000000   0.0000000   0.0000000   0.0000000   0.0000000   0.0000000
 NMagM=    2.7928460   0.0000000   2.7928460   2.7928460   2.7928460   0.0000000   0.0000000   2.7928460   2.7928460   2.7928460
 AtZNuc=   1.0000000   6.0000000   1.0000000   1.0000000   1.0000000   6.0000000   6.0000000   1.0000000   1.0000000   1.0000000

  Atom        21          22          23          24          25          26          27          28          29          30
 IAtWgt=          12           1           1           1          12           1           1           1          12          12
 AtmWgt=  12.0000000   1.0078250   1.0078250   1.0078250  12.0000000   1.0078250   1.0078250   1.0078250  12.0000000  12.0000000
 NucSpn=           0           1           1           1           0           1           1           1           0           0
 AtZEff=   0.0000000   0.0000000   0.0000000   0.0000000   0.0000000   0.0000000   0.0000000   0.0000000   0.0000000   0.0000000
 NQMom=    0.0000000   0.0000000   0.0000000   0.0000000   0.0000000   0.0000000   0.0000000   0.0000000   0.0000000   0.0000000
 NMagM=    0.0000000   2.7928460   2.7928460   2.7928460   0.0000000   2.7928460   2.7928460   2.7928460   0.0000000   0.0000000
 AtZNuc=   6.0000000   1.0000000   1.0000000   1.0000000   6.0000000   1.0000000   1.0000000   1.0000000   6.0000000   6.0000000

  Atom        31          32          33          34          35          36          37          38          39          40
 IAtWgt=           1           1           1          12           1           1           1          12           1           1
 AtmWgt=   1.0078250   1.0078250   1.0078250  12.0000000   1.0078250   1.0078250   1.0078250  12.0000000   1.0078250   1.0078250
 NucSpn=           1           1           1           0           1           1           1           0           1           1
 AtZEff=   0.0000000   0.0000000   0.0000000   0.0000000   0.0000000   0.0000000   0.0000000   0.0000000   0.0000000   0.0000000
 NQMom=    0.0000000   0.0000000   0.0000000   0.0000000   0.0000000   0.0000000   0.0000000   0.0000000   0.0000000   0.0000000
 NMagM=    2.7928460   2.7928460   2.7928460   0.0000000   2.7928460   2.7928460   2.7928460   0.0000000   2.7928460   2.7928460
 AtZNuc=   1.0000000   1.0000000   1.0000000   6.0000000   1.0000000   1.0000000   1.0000000   6.0000000   1.0000000   1.0000000

  Atom        41          42          43          44          45          46          47          48          49          50
 IAtWgt=           1          12          12           1          12           1          12          12           1          12
 AtmWgt=   1.0078250  12.0000000  12.0000000   1.0078250  12.0000000   1.0078250  12.0000000  12.0000000   1.0078250  12.0000000
 NucSpn=           1           0           0           1           0           1           0           0           1           0
 AtZEff=   0.0000000   0.0000000   0.0000000   0.0000000   0.0000000   0.0000000   0.0000000   0.0000000   0.0000000   0.0000000
 NQMom=    0.0000000   0.0000000   0.0000000   0.0000000   0.0000000   0.0000000   0.0000000   0.0000000   0.0000000   0.0000000
 NMagM=    2.7928460   0.0000000   0.0000000   2.7928460   0.0000000   2.7928460   0.0000000   0.0000000   2.7928460   0.0000000
 AtZNuc=   1.0000000   6.0000000   6.0000000   1.0000000   6.0000000   1.0000000   6.0000000   6.0000000   1.0000000   6.0000000

  Atom        51          52          53          54          55          56          57          58          59          60
 IAtWgt=          12          12          12          12          12          12          14          32          16          16
 AtmWgt=  12.0000000  12.0000000  12.0000000  12.0000000  12.0000000  12.0000000  14.0030740  31.9720718  15.9949146  15.9949146
 NucSpn=           0           0           0           0           0           0           2           0           0           0
 AtZEff=   0.0000000   0.0000000   0.0000000   0.0000000   0.0000000   0.0000000   0.0000000   0.0000000   0.0000000   0.0000000
 NQMom=    0.0000000   0.0000000   0.0000000   0.0000000   0.0000000   0.0000000   2.0440000   0.0000000   0.0000000   0.0000000
 NMagM=    0.0000000   0.0000000   0.0000000   0.0000000   0.0000000   0.0000000   0.4037610   0.0000000   0.0000000   0.0000000
 AtZNuc=   6.0000000   6.0000000   6.0000000   6.0000000   6.0000000   6.0000000   7.0000000  16.0000000   8.0000000   8.0000000

  Atom        61          62          63          64          65          66          67          68          69          70
 IAtWgt=          12          35           1           1          19          19          19          19          16          12
 AtmWgt=  12.0000000  34.9688527   1.0078250   1.0078250  18.9984033  18.9984033  18.9984033  18.9984033  15.9949146  12.0000000
 NucSpn=           0           3           1           1           1           1           1           1           0           0
 AtZEff=   0.0000000   0.0000000   0.0000000   0.0000000   0.0000000   0.0000000   0.0000000   0.0000000   0.0000000   0.0000000
 NQMom=    0.0000000  -8.1650000   0.0000000   0.0000000   0.0000000   0.0000000   0.0000000   0.0000000   0.0000000   0.0000000
 NMagM=    0.0000000   0.8218740   2.7928460   2.7928460   2.6288670   2.6288670   2.6288670   2.6288670   0.0000000   0.0000000
 AtZNuc=   6.0000000  17.0000000   1.0000000   1.0000000   9.0000000   9.0000000   9.0000000   9.0000000   8.0000000   6.0000000

  Atom        71          72          73
 IAtWgt=           1           1           1
 AtmWgt=   1.0078250   1.0078250   1.0078250
 NucSpn=           1           1           1
 AtZEff=   0.0000000   0.0000000   0.0000000
 NQMom=    0.0000000   0.0000000   0.0000000
 NMagM=    2.7928460   2.7928460   2.7928460
 AtZNuc=   1.0000000   1.0000000   1.0000000
 Leave Link  101 at Mon May  8 14:09:10 2023, MaxMem=  2147483648 cpu:         5.7
 (Enter /cluster/apps/gaussian/g09/l103.exe)

 GradGradGradGradGradGradGradGradGradGradGradGradGradGradGradGradGradGrad
 Berny optimization.
 Initialization pass.
                           ----------------------------
                           !    Initial Parameters    !
                           ! (Angstroms and Degrees)  !
 --------------------------                            --------------------------
 ! Name  Definition              Value          Derivative Info.                !
 --------------------------------------------------------------------------------
 ! R1    R(1,2)                  2.3032         estimate D2E/DX2                !
 ! R2    R(1,42)                 2.0283         estimate D2E/DX2                !
 ! R3    R(1,57)                 2.1043         estimate D2E/DX2                !
 ! R4    R(1,58)                 2.618          estimate D2E/DX2                !
 ! R5    R(2,3)                  1.9146         estimate D2E/DX2                !
 ! R6    R(2,16)                 1.9282         estimate D2E/DX2                !
 ! R7    R(2,29)                 1.9203         estimate D2E/DX2                !
 ! R8    R(3,4)                  1.5313         estimate D2E/DX2                !
 ! R9    R(3,8)                  1.5282         estimate D2E/DX2                !
 ! R10   R(3,12)                 1.532          estimate D2E/DX2                !
 ! R11   R(4,5)                  1.0823         estimate D2E/DX2                !
 ! R12   R(4,6)                  1.0891         estimate D2E/DX2                !
 ! R13   R(4,7)                  1.0847         estimate D2E/DX2                !
 ! R14   R(8,9)                  1.0846         estimate D2E/DX2                !
 ! R15   R(8,10)                 1.0857         estimate D2E/DX2                !
 ! R16   R(8,11)                 1.0899         estimate D2E/DX2                !
 ! R17   R(12,13)                1.0849         estimate D2E/DX2                !
 ! R18   R(12,14)                1.0895         estimate D2E/DX2                !
 ! R19   R(12,15)                1.0895         estimate D2E/DX2                !
 ! R20   R(16,17)                1.5397         estimate D2E/DX2                !
 ! R21   R(16,21)                1.529          estimate D2E/DX2                !
 ! R22   R(16,25)                1.5321         estimate D2E/DX2                !
 ! R23   R(17,18)                1.0853         estimate D2E/DX2                !
 ! R24   R(17,19)                1.0882         estimate D2E/DX2                !
 ! R25   R(17,20)                1.0966         estimate D2E/DX2                !
 ! R26   R(21,22)                1.0898         estimate D2E/DX2                !
 ! R27   R(21,23)                1.0859         estimate D2E/DX2                !
 ! R28   R(21,24)                1.0839         estimate D2E/DX2                !
 ! R29   R(25,26)                1.0891         estimate D2E/DX2                !
 ! R30   R(25,27)                1.0854         estimate D2E/DX2                !
 ! R31   R(25,28)                1.0899         estimate D2E/DX2                !
 ! R32   R(29,30)                1.5288         estimate D2E/DX2                !
 ! R33   R(29,34)                1.5354         estimate D2E/DX2                !
 ! R34   R(29,38)                1.5328         estimate D2E/DX2                !
 ! R35   R(30,31)                1.0848         estimate D2E/DX2                !
 ! R36   R(30,32)                1.0859         estimate D2E/DX2                !
 ! R37   R(30,33)                1.0899         estimate D2E/DX2                !
 ! R38   R(34,35)                1.0894         estimate D2E/DX2                !
 ! R39   R(34,36)                1.0834         estimate D2E/DX2                !
 ! R40   R(34,37)                1.091          estimate D2E/DX2                !
 ! R41   R(38,39)                1.0895         estimate D2E/DX2                !
 ! R42   R(38,40)                1.085          estimate D2E/DX2                !
 ! R43   R(38,41)                1.0942         estimate D2E/DX2                !
 ! R44   R(42,43)                1.3794         estimate D2E/DX2                !
 ! R45   R(42,50)                1.4052         estimate D2E/DX2                !
 ! R46   R(43,44)                1.0823         estimate D2E/DX2                !
 ! R47   R(43,45)                1.3915         estimate D2E/DX2                !
 ! R48   R(45,46)                1.0783         estimate D2E/DX2                !
 ! R49   R(45,47)                1.388          estimate D2E/DX2                !
 ! R50   R(47,48)                1.3948         estimate D2E/DX2                !
 ! R51   R(47,69)                1.3611         estimate D2E/DX2                !
 ! R52   R(48,49)                1.0777         estimate D2E/DX2                !
 ! R53   R(48,50)                1.3868         estimate D2E/DX2                !
 ! R54   R(50,51)                1.4723         estimate D2E/DX2                !
 ! R55   R(51,52)                1.3841         estimate D2E/DX2                !
 ! R56   R(51,56)                1.4256         estimate D2E/DX2                !
 ! R57   R(52,53)                1.3914         estimate D2E/DX2                !
 ! R58   R(52,68)                1.3451         estimate D2E/DX2                !
 ! R59   R(53,54)                1.3889         estimate D2E/DX2                !
 ! R60   R(53,67)                1.3446         estimate D2E/DX2                !
 ! R61   R(54,55)                1.387          estimate D2E/DX2                !
 ! R62   R(54,66)                1.3395         estimate D2E/DX2                !
 ! R63   R(55,56)                1.4025         estimate D2E/DX2                !
 ! R64   R(55,65)                1.3486         estimate D2E/DX2                !
 ! R65   R(56,57)                1.3612         estimate D2E/DX2                !
 ! R66   R(57,58)                1.6007         estimate D2E/DX2                !
 ! R67   R(58,59)                1.453          estimate D2E/DX2                !
 ! R68   R(58,60)                1.4271         estimate D2E/DX2                !
 ! R69   R(58,61)                1.8518         estimate D2E/DX2                !
 ! R70   R(61,62)                1.7341         estimate D2E/DX2                !
 ! R71   R(61,63)                1.0876         estimate D2E/DX2                !
 ! R72   R(61,64)                1.0873         estimate D2E/DX2                !
 ! R73   R(69,70)                1.4066         estimate D2E/DX2                !
 ! R74   R(70,71)                1.0887         estimate D2E/DX2                !
 ! R75   R(70,72)                1.0949         estimate D2E/DX2                !
 ! R76   R(70,73)                1.0948         estimate D2E/DX2                !
 ! A1    A(2,1,42)             103.8529         estimate D2E/DX2                !
 ! A2    A(2,1,57)             163.6872         estimate D2E/DX2                !
 ! A3    A(2,1,58)             145.5174         estimate D2E/DX2                !
 ! A4    A(42,1,57)             77.2858         estimate D2E/DX2                !
 ! A5    A(42,1,58)            110.6104         estimate D2E/DX2                !
 ! A6    A(1,2,3)              121.6285         estimate D2E/DX2                !
 ! A7    A(1,2,16)             105.8791         estimate D2E/DX2                !
 ! A8    A(1,2,29)             103.7941         estimate D2E/DX2                !
 ! A9    A(3,2,16)             109.2291         estimate D2E/DX2                !
 ! A10   A(3,2,29)             107.4055         estimate D2E/DX2                !
 ! A11   A(16,2,29)            108.2302         estimate D2E/DX2                !
 ! A12   A(2,3,4)              108.66           estimate D2E/DX2                !
 ! A13   A(2,3,8)              115.0625         estimate D2E/DX2                !
 ! A14   A(2,3,12)             109.1438         estimate D2E/DX2                !
 ! A15   A(4,3,8)              109.5163         estimate D2E/DX2                !
 ! A16   A(4,3,12)             104.8735         estimate D2E/DX2                !
 ! A17   A(8,3,12)             109.0937         estimate D2E/DX2                !
 ! A18   A(3,4,5)              113.7041         estimate D2E/DX2                !
 ! A19   A(3,4,6)              109.2784         estimate D2E/DX2                !
 ! A20   A(3,4,7)              108.7499         estimate D2E/DX2                !
 ! A21   A(5,4,6)              108.3842         estimate D2E/DX2                !
 ! A22   A(5,4,7)              108.3382         estimate D2E/DX2                !
 ! A23   A(6,4,7)              108.2528         estimate D2E/DX2                !
 ! A24   A(3,8,9)              112.1398         estimate D2E/DX2                !
 ! A25   A(3,8,10)             111.5348         estimate D2E/DX2                !
 ! A26   A(3,8,11)             108.7085         estimate D2E/DX2                !
 ! A27   A(9,8,10)             109.1339         estimate D2E/DX2                !
 ! A28   A(9,8,11)             107.7434         estimate D2E/DX2                !
 ! A29   A(10,8,11)            107.3959         estimate D2E/DX2                !
 ! A30   A(3,12,13)            112.35           estimate D2E/DX2                !
 ! A31   A(3,12,14)            110.2998         estimate D2E/DX2                !
 ! A32   A(3,12,15)            108.8399         estimate D2E/DX2                !
 ! A33   A(13,12,14)           110.1296         estimate D2E/DX2                !
 ! A34   A(13,12,15)           107.2726         estimate D2E/DX2                !
 ! A35   A(14,12,15)           107.7898         estimate D2E/DX2                !
 ! A36   A(2,16,17)            108.254          estimate D2E/DX2                !
 ! A37   A(2,16,21)            117.0527         estimate D2E/DX2                !
 ! A38   A(2,16,25)            107.3222         estimate D2E/DX2                !
 ! A39   A(17,16,21)           108.3141         estimate D2E/DX2                !
 ! A40   A(17,16,25)           106.5264         estimate D2E/DX2                !
 ! A41   A(21,16,25)           108.8961         estimate D2E/DX2                !
 ! A42   A(16,17,18)           112.3403         estimate D2E/DX2                !
 ! A43   A(16,17,19)           109.5385         estimate D2E/DX2                !
 ! A44   A(16,17,20)           111.1378         estimate D2E/DX2                !
 ! A45   A(18,17,19)           107.2271         estimate D2E/DX2                !
 ! A46   A(18,17,20)           108.7473         estimate D2E/DX2                !
 ! A47   A(19,17,20)           107.6674         estimate D2E/DX2                !
 ! A48   A(16,21,22)           108.2294         estimate D2E/DX2                !
 ! A49   A(16,21,23)           111.8459         estimate D2E/DX2                !
 ! A50   A(16,21,24)           112.5948         estimate D2E/DX2                !
 ! A51   A(22,21,23)           107.2905         estimate D2E/DX2                !
 ! A52   A(22,21,24)           107.7284         estimate D2E/DX2                !
 ! A53   A(23,21,24)           108.93           estimate D2E/DX2                !
 ! A54   A(16,25,26)           109.4423         estimate D2E/DX2                !
 ! A55   A(16,25,27)           112.0843         estimate D2E/DX2                !
 ! A56   A(16,25,28)           110.1696         estimate D2E/DX2                !
 ! A57   A(26,25,27)           107.2979         estimate D2E/DX2                !
 ! A58   A(26,25,28)           107.926          estimate D2E/DX2                !
 ! A59   A(27,25,28)           109.7924         estimate D2E/DX2                !
 ! A60   A(2,29,30)            117.0415         estimate D2E/DX2                !
 ! A61   A(2,29,34)            108.5002         estimate D2E/DX2                !
 ! A62   A(2,29,38)            106.5387         estimate D2E/DX2                !
 ! A63   A(30,29,34)           108.8742         estimate D2E/DX2                !
 ! A64   A(30,29,38)           109.193          estimate D2E/DX2                !
 ! A65   A(34,29,38)           106.1575         estimate D2E/DX2                !
 ! A66   A(29,30,31)           112.4633         estimate D2E/DX2                !
 ! A67   A(29,30,32)           111.9316         estimate D2E/DX2                !
 ! A68   A(29,30,33)           108.4093         estimate D2E/DX2                !
 ! A69   A(31,30,32)           108.7179         estimate D2E/DX2                !
 ! A70   A(31,30,33)           107.7477         estimate D2E/DX2                !
 ! A71   A(32,30,33)           107.3604         estimate D2E/DX2                !
 ! A72   A(29,34,35)           108.9968         estimate D2E/DX2                !
 ! A73   A(29,34,36)           113.2177         estimate D2E/DX2                !
 ! A74   A(29,34,37)           110.7315         estimate D2E/DX2                !
 ! A75   A(35,34,36)           107.3783         estimate D2E/DX2                !
 ! A76   A(35,34,37)           107.0969         estimate D2E/DX2                !
 ! A77   A(36,34,37)           109.1841         estimate D2E/DX2                !
 ! A78   A(29,38,39)           109.4638         estimate D2E/DX2                !
 ! A79   A(29,38,40)           112.0427         estimate D2E/DX2                !
 ! A80   A(29,38,41)           110.6424         estimate D2E/DX2                !
 ! A81   A(39,38,40)           107.378          estimate D2E/DX2                !
 ! A82   A(39,38,41)           107.1616         estimate D2E/DX2                !
 ! A83   A(40,38,41)           109.9775         estimate D2E/DX2                !
 ! A84   A(1,42,43)            123.6294         estimate D2E/DX2                !
 ! A85   A(1,42,50)            116.3319         estimate D2E/DX2                !
 ! A86   A(43,42,50)           118.5909         estimate D2E/DX2                !
 ! A87   A(42,43,44)           120.9348         estimate D2E/DX2                !
 ! A88   A(42,43,45)           121.3035         estimate D2E/DX2                !
 ! A89   A(44,43,45)           117.7597         estimate D2E/DX2                !
 ! A90   A(43,45,46)           118.704          estimate D2E/DX2                !
 ! A91   A(43,45,47)           119.8653         estimate D2E/DX2                !
 ! A92   A(46,45,47)           121.4286         estimate D2E/DX2                !
 ! A93   A(45,47,48)           118.9819         estimate D2E/DX2                !
 ! A94   A(45,47,69)           125.2309         estimate D2E/DX2                !
 ! A95   A(48,47,69)           115.7296         estimate D2E/DX2                !
 ! A96   A(47,48,49)           118.1731         estimate D2E/DX2                !
 ! A97   A(47,48,50)           120.9022         estimate D2E/DX2                !
 ! A98   A(49,48,50)           120.8654         estimate D2E/DX2                !
 ! A99   A(42,50,48)           119.6803         estimate D2E/DX2                !
 ! A100  A(42,50,51)           119.3177         estimate D2E/DX2                !
 ! A101  A(48,50,51)           120.6375         estimate D2E/DX2                !
 ! A102  A(50,51,52)           124.2766         estimate D2E/DX2                !
 ! A103  A(50,51,56)           116.0851         estimate D2E/DX2                !
 ! A104  A(52,51,56)           119.638          estimate D2E/DX2                !
 ! A105  A(51,52,53)           121.8277         estimate D2E/DX2                !
 ! A106  A(51,52,68)           119.9437         estimate D2E/DX2                !
 ! A107  A(53,52,68)           118.1673         estimate D2E/DX2                !
 ! A108  A(52,53,54)           119.0089         estimate D2E/DX2                !
 ! A109  A(52,53,67)           120.5869         estimate D2E/DX2                !
 ! A110  A(54,53,67)           120.3832         estimate D2E/DX2                !
 ! A111  A(53,54,55)           120.0781         estimate D2E/DX2                !
 ! A112  A(53,54,66)           119.9541         estimate D2E/DX2                !
 ! A113  A(55,54,66)           119.9649         estimate D2E/DX2                !
 ! A114  A(54,55,56)           121.8679         estimate D2E/DX2                !
 ! A115  A(54,55,65)           118.4204         estimate D2E/DX2                !
 ! A116  A(56,55,65)           119.6752         estimate D2E/DX2                !
 ! A117  A(51,56,55)           117.517          estimate D2E/DX2                !
 ! A118  A(51,56,57)           118.0206         estimate D2E/DX2                !
 ! A119  A(55,56,57)           124.4407         estimate D2E/DX2                !
 ! A120  A(1,57,56)             96.9893         estimate D2E/DX2                !
 ! A121  A(56,57,58)           124.8999         estimate D2E/DX2                !
 ! A122  A(1,58,59)             64.2553         estimate D2E/DX2                !
 ! A123  A(1,58,61)             87.8154         estimate D2E/DX2                !
 ! A124  A(57,58,59)           109.9496         estimate D2E/DX2                !
 ! A125  A(57,58,60)           117.1813         estimate D2E/DX2                !
 ! A126  A(57,58,61)            99.3056         estimate D2E/DX2                !
 ! A127  A(59,58,60)           118.6491         estimate D2E/DX2                !
 ! A128  A(59,58,61)           107.6282         estimate D2E/DX2                !
 ! A129  A(60,58,61)           101.2614         estimate D2E/DX2                !
 ! A130  A(58,61,62)           112.6926         estimate D2E/DX2                !
 ! A131  A(58,61,63)           106.6873         estimate D2E/DX2                !
 ! A132  A(58,61,64)           106.4836         estimate D2E/DX2                !
 ! A133  A(62,61,63)           109.6913         estimate D2E/DX2                !
 ! A134  A(62,61,64)           109.8055         estimate D2E/DX2                !
 ! A135  A(63,61,64)           111.4336         estimate D2E/DX2                !
 ! A136  A(47,69,70)           118.4684         estimate D2E/DX2                !
 ! A137  A(69,70,71)           105.673          estimate D2E/DX2                !
 ! A138  A(69,70,72)           111.5933         estimate D2E/DX2                !
 ! A139  A(69,70,73)           111.5582         estimate D2E/DX2                !
 ! A140  A(71,70,72)           109.211          estimate D2E/DX2                !
 ! A141  A(71,70,73)           109.2937         estimate D2E/DX2                !
 ! A142  A(72,70,73)           109.4119         estimate D2E/DX2                !
 ! A143  L(1,58,60,59,-1)      182.9043         estimate D2E/DX2                !
 ! A144  L(1,58,60,59,-2)      167.3765         estimate D2E/DX2                !
 ! D1    D(42,1,2,3)           -60.8028         estimate D2E/DX2                !
 ! D2    D(42,1,2,16)           64.4611         estimate D2E/DX2                !
 ! D3    D(42,1,2,29)          178.3363         estimate D2E/DX2                !
 ! D4    D(57,1,2,3)          -152.8416         estimate D2E/DX2                !
 ! D5    D(57,1,2,16)          -27.5777         estimate D2E/DX2                !
 ! D6    D(57,1,2,29)           86.2974         estimate D2E/DX2                !
 ! D7    D(58,1,2,3)           117.2566         estimate D2E/DX2                !
 ! D8    D(58,1,2,16)         -117.4795         estimate D2E/DX2                !
 ! D9    D(58,1,2,29)           -3.6044         estimate D2E/DX2                !
 ! D10   D(2,1,42,43)           82.3479         estimate D2E/DX2                !
 ! D11   D(2,1,42,50)         -111.6091         estimate D2E/DX2                !
 ! D12   D(57,1,42,43)        -114.3759         estimate D2E/DX2                !
 ! D13   D(57,1,42,50)          51.6671         estimate D2E/DX2                !
 ! D14   D(58,1,42,43)         -96.4784         estimate D2E/DX2                !
 ! D15   D(58,1,42,50)          69.5646         estimate D2E/DX2                !
 ! D16   D(2,1,57,56)           12.8724         estimate D2E/DX2                !
 ! D17   D(42,1,57,56)         -83.0353         estimate D2E/DX2                !
 ! D18   D(2,1,58,59)            6.7056         estimate D2E/DX2                !
 ! D19   D(2,1,58,61)         -104.0788         estimate D2E/DX2                !
 ! D20   D(42,1,58,59)        -175.3075         estimate D2E/DX2                !
 ! D21   D(42,1,58,61)          73.9081         estimate D2E/DX2                !
 ! D22   D(1,2,3,4)             41.4676         estimate D2E/DX2                !
 ! D23   D(1,2,3,8)            164.6417         estimate D2E/DX2                !
 ! D24   D(1,2,3,12)           -72.3619         estimate D2E/DX2                !
 ! D25   D(16,2,3,4)           -82.2535         estimate D2E/DX2                !
 ! D26   D(16,2,3,8)            40.9205         estimate D2E/DX2                !
 ! D27   D(16,2,3,12)          163.917          estimate D2E/DX2                !
 ! D28   D(29,2,3,4)           160.5808         estimate D2E/DX2                !
 ! D29   D(29,2,3,8)           -76.2452         estimate D2E/DX2                !
 ! D30   D(29,2,3,12)           46.7513         estimate D2E/DX2                !
 ! D31   D(1,2,16,17)           35.1662         estimate D2E/DX2                !
 ! D32   D(1,2,16,21)          157.8473         estimate D2E/DX2                !
 ! D33   D(1,2,16,25)          -79.4559         estimate D2E/DX2                !
 ! D34   D(3,2,16,17)          167.7487         estimate D2E/DX2                !
 ! D35   D(3,2,16,21)          -69.5701         estimate D2E/DX2                !
 ! D36   D(3,2,16,25)           53.1266         estimate D2E/DX2                !
 ! D37   D(29,2,16,17)         -75.608          estimate D2E/DX2                !
 ! D38   D(29,2,16,21)          47.0732         estimate D2E/DX2                !
 ! D39   D(29,2,16,25)         169.7699         estimate D2E/DX2                !
 ! D40   D(1,2,29,30)          176.5911         estimate D2E/DX2                !
 ! D41   D(1,2,29,34)           52.9643         estimate D2E/DX2                !
 ! D42   D(1,2,29,38)          -60.956          estimate D2E/DX2                !
 ! D43   D(3,2,29,30)           46.5857         estimate D2E/DX2                !
 ! D44   D(3,2,29,34)          -77.0411         estimate D2E/DX2                !
 ! D45   D(3,2,29,38)          169.0386         estimate D2E/DX2                !
 ! D46   D(16,2,29,30)         -71.2308         estimate D2E/DX2                !
 ! D47   D(16,2,29,34)         165.1423         estimate D2E/DX2                !
 ! D48   D(16,2,29,38)          51.2221         estimate D2E/DX2                !
 ! D49   D(2,3,4,5)             49.0703         estimate D2E/DX2                !
 ! D50   D(2,3,4,6)            170.3005         estimate D2E/DX2                !
 ! D51   D(2,3,4,7)            -71.7208         estimate D2E/DX2                !
 ! D52   D(8,3,4,5)            -77.3752         estimate D2E/DX2                !
 ! D53   D(8,3,4,6)             43.8549         estimate D2E/DX2                !
 ! D54   D(8,3,4,7)            161.8336         estimate D2E/DX2                !
 ! D55   D(12,3,4,5)           165.6744         estimate D2E/DX2                !
 ! D56   D(12,3,4,6)           -73.0954         estimate D2E/DX2                !
 ! D57   D(12,3,4,7)            44.8832         estimate D2E/DX2                !
 ! D58   D(2,3,8,9)             50.9806         estimate D2E/DX2                !
 ! D59   D(2,3,8,10)           -71.7697         estimate D2E/DX2                !
 ! D60   D(2,3,8,11)           170.003          estimate D2E/DX2                !
 ! D61   D(4,3,8,9)            173.6973         estimate D2E/DX2                !
 ! D62   D(4,3,8,10)            50.9471         estimate D2E/DX2                !
 ! D63   D(4,3,8,11)           -67.2803         estimate D2E/DX2                !
 ! D64   D(12,3,8,9)           -72.0426         estimate D2E/DX2                !
 ! D65   D(12,3,8,10)          165.2071         estimate D2E/DX2                !
 ! D66   D(12,3,8,11)           46.9798         estimate D2E/DX2                !
 ! D67   D(2,3,12,13)          -77.8743         estimate D2E/DX2                !
 ! D68   D(2,3,12,14)           45.4122         estimate D2E/DX2                !
 ! D69   D(2,3,12,15)          163.4733         estimate D2E/DX2                !
 ! D70   D(4,3,12,13)          165.8547         estimate D2E/DX2                !
 ! D71   D(4,3,12,14)          -70.8588         estimate D2E/DX2                !
 ! D72   D(4,3,12,15)           47.2023         estimate D2E/DX2                !
 ! D73   D(8,3,12,13)           48.615          estimate D2E/DX2                !
 ! D74   D(8,3,12,14)          171.9015         estimate D2E/DX2                !
 ! D75   D(8,3,12,15)          -70.0374         estimate D2E/DX2                !
 ! D76   D(2,16,17,18)          94.8707         estimate D2E/DX2                !
 ! D77   D(2,16,17,19)        -146.078          estimate D2E/DX2                !
 ! D78   D(2,16,17,20)         -27.2311         estimate D2E/DX2                !
 ! D79   D(21,16,17,18)        -32.9819         estimate D2E/DX2                !
 ! D80   D(21,16,17,19)         86.0695         estimate D2E/DX2                !
 ! D81   D(21,16,17,20)       -155.0837         estimate D2E/DX2                !
 ! D82   D(25,16,17,18)       -149.9852         estimate D2E/DX2                !
 ! D83   D(25,16,17,19)        -30.9339         estimate D2E/DX2                !
 ! D84   D(25,16,17,20)         87.913          estimate D2E/DX2                !
 ! D85   D(2,16,21,22)         176.8893         estimate D2E/DX2                !
 ! D86   D(2,16,21,23)         -65.1304         estimate D2E/DX2                !
 ! D87   D(2,16,21,24)          57.9221         estimate D2E/DX2                !
 ! D88   D(17,16,21,22)        -60.4606         estimate D2E/DX2                !
 ! D89   D(17,16,21,23)         57.5198         estimate D2E/DX2                !
 ! D90   D(17,16,21,24)       -179.4278         estimate D2E/DX2                !
 ! D91   D(25,16,21,22)         55.0071         estimate D2E/DX2                !
 ! D92   D(25,16,21,23)        172.9875         estimate D2E/DX2                !
 ! D93   D(25,16,21,24)        -63.9601         estimate D2E/DX2                !
 ! D94   D(2,16,25,26)         170.1786         estimate D2E/DX2                !
 ! D95   D(2,16,25,27)         -70.9067         estimate D2E/DX2                !
 ! D96   D(2,16,25,28)          51.6638         estimate D2E/DX2                !
 ! D97   D(17,16,25,26)         54.4066         estimate D2E/DX2                !
 ! D98   D(17,16,25,27)        173.3213         estimate D2E/DX2                !
 ! D99   D(17,16,25,28)        -64.1083         estimate D2E/DX2                !
 ! D100  D(21,16,25,26)        -62.2091         estimate D2E/DX2                !
 ! D101  D(21,16,25,27)         56.7056         estimate D2E/DX2                !
 ! D102  D(21,16,25,28)        179.2761         estimate D2E/DX2                !
 ! D103  D(2,29,30,31)          55.1277         estimate D2E/DX2                !
 ! D104  D(2,29,30,32)         -67.6121         estimate D2E/DX2                !
 ! D105  D(2,29,30,33)         174.1573         estimate D2E/DX2                !
 ! D106  D(34,29,30,31)        178.5636         estimate D2E/DX2                !
 ! D107  D(34,29,30,32)         55.8238         estimate D2E/DX2                !
 ! D108  D(34,29,30,33)        -62.4068         estimate D2E/DX2                !
 ! D109  D(38,29,30,31)        -65.943          estimate D2E/DX2                !
 ! D110  D(38,29,30,32)        171.3172         estimate D2E/DX2                !
 ! D111  D(38,29,30,33)         53.0866         estimate D2E/DX2                !
 ! D112  D(2,29,34,35)        -160.5214         estimate D2E/DX2                !
 ! D113  D(2,29,34,36)          80.0461         estimate D2E/DX2                !
 ! D114  D(2,29,34,37)         -42.9566         estimate D2E/DX2                !
 ! D115  D(30,29,34,35)         71.0862         estimate D2E/DX2                !
 ! D116  D(30,29,34,36)        -48.3462         estimate D2E/DX2                !
 ! D117  D(30,29,34,37)       -171.3489         estimate D2E/DX2                !
 ! D118  D(38,29,34,35)        -46.3505         estimate D2E/DX2                !
 ! D119  D(38,29,34,36)       -165.783          estimate D2E/DX2                !
 ! D120  D(38,29,34,37)         71.2143         estimate D2E/DX2                !
 ! D121  D(2,29,38,39)         166.5613         estimate D2E/DX2                !
 ! D122  D(2,29,38,40)         -74.436          estimate D2E/DX2                !
 ! D123  D(2,29,38,41)          48.6854         estimate D2E/DX2                !
 ! D124  D(30,29,38,39)        -66.1713         estimate D2E/DX2                !
 ! D125  D(30,29,38,40)         52.8315         estimate D2E/DX2                !
 ! D126  D(30,29,38,41)        175.9528         estimate D2E/DX2                !
 ! D127  D(34,29,38,39)         51.0527         estimate D2E/DX2                !
 ! D128  D(34,29,38,40)        170.0554         estimate D2E/DX2                !
 ! D129  D(34,29,38,41)        -66.8232         estimate D2E/DX2                !
 ! D130  D(1,42,43,44)          -5.5334         estimate D2E/DX2                !
 ! D131  D(1,42,43,45)         173.9478         estimate D2E/DX2                !
 ! D132  D(50,42,43,44)       -171.2814         estimate D2E/DX2                !
 ! D133  D(50,42,43,45)          8.1998         estimate D2E/DX2                !
 ! D134  D(1,42,50,48)        -175.5618         estimate D2E/DX2                !
 ! D135  D(1,42,50,51)          -2.4472         estimate D2E/DX2                !
 ! D136  D(43,42,50,48)         -8.7833         estimate D2E/DX2                !
 ! D137  D(43,42,50,51)        164.3312         estimate D2E/DX2                !
 ! D138  D(42,43,45,46)        178.8374         estimate D2E/DX2                !
 ! D139  D(42,43,45,47)         -1.6858         estimate D2E/DX2                !
 ! D140  D(44,43,45,46)         -1.6654         estimate D2E/DX2                !
 ! D141  D(44,43,45,47)        177.8114         estimate D2E/DX2                !
 ! D142  D(43,45,47,48)         -4.2637         estimate D2E/DX2                !
 ! D143  D(43,45,47,69)        178.62           estimate D2E/DX2                !
 ! D144  D(46,45,47,48)        175.1985         estimate D2E/DX2                !
 ! D145  D(46,45,47,69)         -1.9178         estimate D2E/DX2                !
 ! D146  D(45,47,48,49)       -173.6406         estimate D2E/DX2                !
 ! D147  D(45,47,48,50)          3.5828         estimate D2E/DX2                !
 ! D148  D(69,47,48,49)          3.7449         estimate D2E/DX2                !
 ! D149  D(69,47,48,50)       -179.0317         estimate D2E/DX2                !
 ! D150  D(45,47,69,70)         -1.3864         estimate D2E/DX2                !
 ! D151  D(48,47,69,70)       -178.5863         estimate D2E/DX2                !
 ! D152  D(47,48,50,42)          2.9789         estimate D2E/DX2                !
 ! D153  D(47,48,50,51)       -170.0431         estimate D2E/DX2                !
 ! D154  D(49,48,50,42)       -179.8726         estimate D2E/DX2                !
 ! D155  D(49,48,50,51)          7.1054         estimate D2E/DX2                !
 ! D156  D(42,50,51,52)        142.3701         estimate D2E/DX2                !
 ! D157  D(42,50,51,56)        -37.4268         estimate D2E/DX2                !
 ! D158  D(48,50,51,52)        -44.5828         estimate D2E/DX2                !
 ! D159  D(48,50,51,56)        135.6202         estimate D2E/DX2                !
 ! D160  D(50,51,52,53)       -178.2965         estimate D2E/DX2                !
 ! D161  D(50,51,52,68)         -1.1973         estimate D2E/DX2                !
 ! D162  D(56,51,52,53)          1.4937         estimate D2E/DX2                !
 ! D163  D(56,51,52,68)        178.5929         estimate D2E/DX2                !
 ! D164  D(50,51,56,55)        176.9617         estimate D2E/DX2                !
 ! D165  D(50,51,56,57)         -4.6555         estimate D2E/DX2                !
 ! D166  D(52,51,56,55)         -2.8453         estimate D2E/DX2                !
 ! D167  D(52,51,56,57)        175.5375         estimate D2E/DX2                !
 ! D168  D(51,52,53,54)          0.6301         estimate D2E/DX2                !
 ! D169  D(51,52,53,67)        178.9707         estimate D2E/DX2                !
 ! D170  D(68,52,53,54)       -176.5187         estimate D2E/DX2                !
 ! D171  D(68,52,53,67)          1.8219         estimate D2E/DX2                !
 ! D172  D(52,53,54,55)         -1.3231         estimate D2E/DX2                !
 ! D173  D(52,53,54,66)        178.061          estimate D2E/DX2                !
 ! D174  D(67,53,54,55)       -179.6672         estimate D2E/DX2                !
 ! D175  D(67,53,54,66)         -0.2831         estimate D2E/DX2                !
 ! D176  D(53,54,55,56)         -0.1302         estimate D2E/DX2                !
 ! D177  D(53,54,55,65)        177.6667         estimate D2E/DX2                !
 ! D178  D(66,54,55,56)       -179.5143         estimate D2E/DX2                !
 ! D179  D(66,54,55,65)         -1.7173         estimate D2E/DX2                !
 ! D180  D(54,55,56,51)          2.2016         estimate D2E/DX2                !
 ! D181  D(54,55,56,57)       -176.0673         estimate D2E/DX2                !
 ! D182  D(65,55,56,51)       -175.5684         estimate D2E/DX2                !
 ! D183  D(65,55,56,57)          6.1627         estimate D2E/DX2                !
 ! D184  D(51,56,57,1)          70.7674         estimate D2E/DX2                !
 ! D185  D(51,56,57,58)        164.2413         estimate D2E/DX2                !
 ! D186  D(55,56,57,1)        -110.9717         estimate D2E/DX2                !
 ! D187  D(55,56,57,58)        -17.4978         estimate D2E/DX2                !
 ! D188  D(56,57,58,59)        -65.2587         estimate D2E/DX2                !
 ! D189  D(56,57,58,60)         74.1846         estimate D2E/DX2                !
 ! D190  D(56,57,58,61)       -177.961          estimate D2E/DX2                !
 ! D191  D(1,58,61,62)          20.845          estimate D2E/DX2                !
 ! D192  D(1,58,61,63)         -99.5949         estimate D2E/DX2                !
 ! D193  D(1,58,61,64)         141.2915         estimate D2E/DX2                !
 ! D194  D(57,58,61,62)         73.2732         estimate D2E/DX2                !
 ! D195  D(57,58,61,63)        -47.1667         estimate D2E/DX2                !
 ! D196  D(57,58,61,64)       -166.2803         estimate D2E/DX2                !
 ! D197  D(59,58,61,62)        -41.2363         estimate D2E/DX2                !
 ! D198  D(59,58,61,63)       -161.6762         estimate D2E/DX2                !
 ! D199  D(59,58,61,64)         79.2101         estimate D2E/DX2                !
 ! D200  D(60,58,61,62)       -166.421          estimate D2E/DX2                !
 ! D201  D(60,58,61,63)         73.139          estimate D2E/DX2                !
 ! D202  D(60,58,61,64)        -45.9746         estimate D2E/DX2                !
 ! D203  D(47,69,70,71)       -178.5445         estimate D2E/DX2                !
 ! D204  D(47,69,70,72)         62.8614         estimate D2E/DX2                !
 ! D205  D(47,69,70,73)        -59.8699         estimate D2E/DX2                !
 --------------------------------------------------------------------------------
 Trust Radius=3.00D-01 FncErr=1.00D-07 GrdErr=1.00D-06
 Number of steps in this run=    435 maximum allowed number of steps=    438.
 GradGradGradGradGradGradGradGradGradGradGradGradGradGradGradGradGradGrad

 Leave Link  103 at Mon May  8 14:09:11 2023, MaxMem=  2147483648 cpu:         0.1
 (Enter /cluster/apps/gaussian/g09/l202.exe)
 Stoichiometry    C26H35ClF4NO3PPdS
 Framework group  C1[X(C26H35ClF4NO3PPdS)]
 Deg. of freedom   213
 Full point group                 C1      NOp   1
 Largest Abelian subgroup         C1      NOp   1
 Largest concise Abelian subgroup C1      NOp   1
                         Standard orientation:                         
 ---------------------------------------------------------------------
 Center     Atomic      Atomic             Coordinates (Angstroms)
 Number     Number       Type             X           Y           Z
 ---------------------------------------------------------------------
      1         46           0       -0.489907   -0.172109    0.659359
      2         15           0       -2.201145    0.140595   -0.850223
      3          6           0       -3.402020    1.625488   -0.713261
      4          6           0       -2.596182    2.875193   -0.347566
      5          1           0       -1.721827    3.025875   -0.967338
      6          1           0       -3.234676    3.753105   -0.435095
      7          1           0       -2.272747    2.791870    0.684403
      8          6           0       -4.234107    1.902679   -1.964723
      9          1           0       -4.738223    1.012775   -2.325802
     10          1           0       -3.626500    2.316421   -2.763726
     11          1           0       -4.997708    2.640921   -1.720370
     12          6           0       -4.343024    1.402685    0.475023
     13          1           0       -5.136871    0.699471    0.246405
     14          1           0       -3.780479    1.063504    1.344242
     15          1           0       -4.814652    2.350341    0.732819
     16          6           0       -1.373036    0.152085   -2.591527
     17          6           0       -0.200453   -0.845682   -2.574527
     18          1           0       -0.485427   -1.823585   -2.949228
     19          1           0        0.600438   -0.476975   -3.212392
     20          1           0        0.206224   -0.960761   -1.562642
     21          6           0       -2.266038   -0.176333   -3.788440
     22          1           0       -1.670984   -0.074802   -4.695765
     23          1           0       -2.628923   -1.199228   -3.753235
     24          1           0       -3.113178    0.494614   -3.872510
     25          6           0       -0.760213    1.541360   -2.796077
     26          1           0       -0.136117    1.534442   -3.688543
     27          1           0       -1.518376    2.304871   -2.938364
     28          1           0       -0.128591    1.802174   -1.947076
     29          6           0       -3.248339   -1.461413   -0.693580
     30          6           0       -4.529929   -1.537977   -1.523599
     31          1           0       -4.349707   -1.373069   -2.580537
     32          1           0       -5.277091   -0.827639   -1.182510
     33          1           0       -4.954128   -2.535597   -1.410582
     34          6           0       -3.601654   -1.669789    0.786050
     35          1           0       -3.879734   -2.711606    0.940904
     36          1           0       -4.434084   -1.060168    1.116325
     37          1           0       -2.737299   -1.470724    1.421233
     38          6           0       -2.327455   -2.624184   -1.080067
     39          1           0       -2.788144   -3.566014   -0.783942
     40          1           0       -2.156295   -2.669605   -2.150519
     41          1           0       -1.372143   -2.551793   -0.551474
     42          6           0        0.648736    1.493952    0.454703
     43          6           0        0.366610    2.693084    1.075431
     44          1           0       -0.545057    2.824409    1.643823
     45          6           0        1.245574    3.769406    1.002382
     46          1           0        0.974310    4.693403    1.487492
     47          6           0        2.448556    3.634487    0.323379
     48          6           0        2.793735    2.388092   -0.198830
     49          1           0        3.773936    2.271346   -0.631279
     50          6           0        1.922013    1.313026   -0.111412
     51          6           0        2.368158   -0.045221   -0.463264
     52          6           0        3.118544   -0.353172   -1.584760
     53          6           0        3.483526   -1.661397   -1.886897
     54          6           0        3.071716   -2.686940   -1.045628
     55          6           0        2.331553   -2.398482    0.091333
     56          6           0        1.978671   -1.084422    0.431520
     57          7           0        1.321469   -0.734244    1.570971
     58         16           0        0.501207   -1.744991    2.502583
     59          8           0       -0.646567   -2.265352    1.779278
     60          8           0        1.257282   -2.637888    3.319659
     61          6           0       -0.128258   -0.545024    3.764759
     62         17           0       -1.395927    0.467102    3.151830
     63          1           0        0.719083    0.068519    4.062245
     64          1           0       -0.500312   -1.138676    4.596235
     65          9           0        1.908452   -3.423418    0.858920
     66          9           0        3.379263   -3.957172   -1.339328
     67          9           0        4.195579   -1.934668   -2.994217
     68          9           0        3.465350    0.618286   -2.448076
     69          8           0        3.373660    4.619692    0.161609
     70          6           0        3.097668    5.892457    0.693124
     71          1           0        3.950099    6.514341    0.424949
     72          1           0        3.002863    5.861879    1.783511
     73          1           0        2.187460    6.320302    0.260600
 ---------------------------------------------------------------------
 Rotational constants (GHZ):      0.0954594      0.0819911      0.0720533
 Leave Link  202 at Mon May  8 14:09:11 2023, MaxMem=  2147483648 cpu:         0.0
 (Enter /cluster/apps/gaussian/g09/l301.exe)
 General basis read from cards:  (5D, 7F)
 Centers:       3      4      8     12     16     17     21     25     29     30
 Centers:      34     38     42     43     45     47     48     50     51     52
 Centers:      53     54     55     56     61     70      5      6      7      9
 Centers:      10     11     13     14     15     18     19     20     22     23
 Centers:      24     26     27     28     31     32     33     35     36     37
 Centers:      39     40     41     44     46     49     63     64     71     72
 Centers:      73      2     58     62     57     65     66     67     68     59
 Centers:      60     69
 def2svp
 ****
 Centers:       1
 def2tzvp
 ****
 ======================================================================================================
                                       Pseudopotential Parameters
 ======================================================================================================
  Center     Atomic      Valence      Angular      Power
  Number     Number     Electrons     Momentum     of R      Exponent        Coefficient   SO-Coeffient
 ======================================================================================================
    1         46           18
                                      G and up 
                                                     2        1.0000000        0.00000000    0.00000000
                                      S - G
                                                     2       12.4300000      240.22904000    0.00000000
                                                     2        6.1707590       35.17194300    0.00000000
                                      P - G
                                                     2       11.0800000      170.41727600    0.00000000
                                                     2        5.8295540       28.47213300    0.00000000
                                      D - G
                                                     2        9.5100000       69.01384500    0.00000000
                                                     2        4.1397810       11.75086200    0.00000000
                                      F - G
                                                     2       13.2700000      -31.92955400    0.00000000
                                                     2        6.6300000       -5.39821700    0.00000000
    2         15
                                   No pseudopotential on this center.
    3          6
                                   No pseudopotential on this center.
    4          6
                                   No pseudopotential on this center.
    5          1
                                   No pseudopotential on this center.
    6          1
                                   No pseudopotential on this center.
    7          1
                                   No pseudopotential on this center.
    8          6
                                   No pseudopotential on this center.
    9          1
                                   No pseudopotential on this center.
   10          1
                                   No pseudopotential on this center.
   11          1
                                   No pseudopotential on this center.
   12          6
                                   No pseudopotential on this center.
   13          1
                                   No pseudopotential on this center.
   14          1
                                   No pseudopotential on this center.
   15          1
                                   No pseudopotential on this center.
   16          6
                                   No pseudopotential on this center.
   17          6
                                   No pseudopotential on this center.
   18          1
                                   No pseudopotential on this center.
   19          1
                                   No pseudopotential on this center.
   20          1
                                   No pseudopotential on this center.
   21          6
                                   No pseudopotential on this center.
   22          1
                                   No pseudopotential on this center.
   23          1
                                   No pseudopotential on this center.
   24          1
                                   No pseudopotential on this center.
   25          6
                                   No pseudopotential on this center.
   26          1
                                   No pseudopotential on this center.
   27          1
                                   No pseudopotential on this center.
   28          1
                                   No pseudopotential on this center.
   29          6
                                   No pseudopotential on this center.
   30          6
                                   No pseudopotential on this center.
   31          1
                                   No pseudopotential on this center.
   32          1
                                   No pseudopotential on this center.
   33          1
                                   No pseudopotential on this center.
   34          6
                                   No pseudopotential on this center.
   35          1
                                   No pseudopotential on this center.
   36          1
                                   No pseudopotential on this center.
   37          1
                                   No pseudopotential on this center.
   38          6
                                   No pseudopotential on this center.
   39          1
                                   No pseudopotential on this center.
   40          1
                                   No pseudopotential on this center.
   41          1
                                   No pseudopotential on this center.
   42          6
                                   No pseudopotential on this center.
   43          6
                                   No pseudopotential on this center.
   44          1
                                   No pseudopotential on this center.
   45          6
                                   No pseudopotential on this center.
   46          1
                                   No pseudopotential on this center.
   47          6
                                   No pseudopotential on this center.
   48          6
                                   No pseudopotential on this center.
   49          1
                                   No pseudopotential on this center.
   50          6
                                   No pseudopotential on this center.
   51          6
                                   No pseudopotential on this center.
   52          6
                                   No pseudopotential on this center.
   53          6
                                   No pseudopotential on this center.
   54          6
                                   No pseudopotential on this center.
   55          6
                                   No pseudopotential on this center.
   56          6
                                   No pseudopotential on this center.
   57          7
                                   No pseudopotential on this center.
   58         16
                                   No pseudopotential on this center.
   59          8
                                   No pseudopotential on this center.
   60          8
                                   No pseudopotential on this center.
   61          6
                                   No pseudopotential on this center.
   62         17
                                   No pseudopotential on this center.
   63          1
                                   No pseudopotential on this center.
   64          1
                                   No pseudopotential on this center.
   65          9
                                   No pseudopotential on this center.
   66          9
                                   No pseudopotential on this center.
   67          9
                                   No pseudopotential on this center.
   68          9
                                   No pseudopotential on this center.
   69          8
                                   No pseudopotential on this center.
   70          6
                                   No pseudopotential on this center.
   71          1
                                   No pseudopotential on this center.
   72          1
                                   No pseudopotential on this center.
   73          1
                                   No pseudopotential on this center.
 ======================================================================================================
 Ernie: Thresh=  0.10000D-02 Tol=  0.10000D-05 Strict=F.
 There are   788 symmetry adapted cartesian basis functions of A   symmetry.
 There are   745 symmetry adapted basis functions of A   symmetry.
   745 basis functions,  1280 primitive gaussians,   788 cartesian basis functions
   162 alpha electrons      162 beta electrons
       nuclear repulsion energy      6346.4937269361 Hartrees.
 IExCor= 1009 DFT=T Ex+Corr=PBE1PBE ExCW=0 ScaHFX=  0.250000
 ScaDFX=  0.750000  0.750000  1.000000  1.000000 ScalE2=  1.000000  1.000000
 IRadAn=      5 IRanWt=     -1 IRanGd=            0 ICorTp=0 IEmpDi=141
 NAtoms=   73 NActive=   73 NUniq=   73 SFac= 1.00D+00 NAtFMM=   60 NAOKFM=T Big=T
 Integral buffers will be    131072 words long.
 Raffenetti 2 integral format.
 Two-electron integral symmetry is turned on.
 R6Disp:  Grimme-D3(BJ) Dispersion energy=       -0.1262178989 Hartrees.
 Nuclear repulsion after empirical dispersion term =     6346.3675090372 Hartrees.
 Leave Link  301 at Mon May  8 14:09:11 2023, MaxMem=  2147483648 cpu:         0.5
 (Enter /cluster/apps/gaussian/g09/l302.exe)
 NPDir=0 NMtPBC=     1 NCelOv=     1 NCel=       1 NClECP=     1 NCelD=      1
         NCelK=      1 NCelE2=     1 NClLst=     1 CellRange=     0.0.
 One-electron integrals computed using PRISM.
   1 Symmetry operations used in ECPInt.
 ECPInt:  NShTT=   60378 NPrTT=  217440 LenC2=   51552 LenP2D=  120838.
 LDataN:  DoStor=T MaxTD1= 7 Len=  274
 NBasis=   745 RedAO= T EigKep=  1.06D-04  NBF=   745
 NBsUse=   745 1.00D-06 EigRej= -1.00D+00 NBFU=   745
 Precomputing XC quadrature grid using
 IXCGrd= 4 IRadAn=           5 IRanWt=          -1 IRanGd=           0 AccXCQ= 0.00D+00.
 Defaulting to unpruned grid for atomic number  46.
 Generated NRdTot=       0 NPtTot=           0 NUsed=           0 NTot=          32
 NSgBfM=   764   767   767   771   771 MxSgAt=    73 MxSgA2=    73.
 Leave Link  302 at Mon May  8 14:09:14 2023, MaxMem=  2147483648 cpu:        22.5
 (Enter /cluster/apps/gaussian/g09/l303.exe)
 DipDrv:  MaxL=1.
 Leave Link  303 at Mon May  8 14:09:14 2023, MaxMem=  2147483648 cpu:         1.4
 (Enter /cluster/apps/gaussian/g09/l401.exe)
 ExpMin= 3.70D-02 ExpMax= 1.04D+04 ExpMxC= 1.57D+03 IAcc=3 IRadAn=         5 AccDes= 0.00D+00
 Harris functional with IExCor= 1009 and IRadAn=       5 diagonalized for initial guess.
 HarFok:  IExCor= 1009 AccDes= 0.00D+00 IRadAn=         5 IDoV= 1 UseB2=F ITyADJ=14
 ICtDFT=  3500011 ScaDFX=  1.000000  1.000000  1.000000  1.000000
 Defaulting to unpruned grid for atomic number  46.
 Defaulting to unpruned grid for atomic number  46.
 Defaulting to unpruned grid for atomic number  46.
 Defaulting to unpruned grid for atomic number  46.
 Defaulting to unpruned grid for atomic number  46.
 Defaulting to unpruned grid for atomic number  46.
 Defaulting to unpruned grid for atomic number  46.
 Defaulting to unpruned grid for atomic number  46.
 FoFCou: FMM=F IPFlag=           0 FMFlag=      100000 FMFlg1=        2001
         NFxFlg=           0 DoJE=T BraDBF=F KetDBF=T FulRan=T
         wScrn=  0.000000 ICntrl=     500 IOpCl=  0 I1Cent=   200000004 NGrid=           0
         NMat0=    1 NMatS0=      1 NMatT0=    0 NMatD0=    1 NMtDS0=    0 NMtDT0=    0
 Petite list used in FoFCou.
 Harris En= -3015.98693858597    
 JPrj=0 DoOrth=F DoCkMO=F.
 Leave Link  401 at Mon May  8 14:09:26 2023, MaxMem=  2147483648 cpu:       100.9
 (Enter /cluster/apps/gaussian/g09/l502.exe)
 Closed shell SCF:
 Using DIIS extrapolation, IDIIS=  1040.
 Integral symmetry usage will be decided dynamically.
 IVT=     1893652 IEndB=     1893652 NGot=  2147483648 MDV=  2146228369
 LenX=  2146228369 LenY=  2145606637
 Requested convergence on RMS density matrix=1.00D-08 within 128 cycles.
 Requested convergence on MAX density matrix=1.00D-06.
 Requested convergence on             energy=1.00D-06.
 No special actions if energy rises.
 Fock matrices will be formed incrementally for  20 cycles.

 Cycle   1  Pass 1  IDiag  1:
 FoFJK:  IHMeth= 1 ICntrl=       0 DoSepK=F KAlg= 0 I1Cent=   0 FoldK=F
 IRaf= 950000000 NMat=   1 IRICut=       1 DoRegI=T DoRafI=F ISym2E= 0.
 FoFCou: FMM=T IPFlag=           0 FMFlag=      100000 FMFlg1=        2001
         NFxFlg=           0 DoJE=F BraDBF=F KetDBF=F FulRan=T
         wScrn=  0.000000 ICntrl=       0 IOpCl=  0 I1Cent=           0 NGrid=           0
         NMat0=    1 NMatS0=      1 NMatT0=    0 NMatD0=    1 NMtDS0=    0 NMtDT0=    0
 Symmetry not used in FoFCou.
 FMM levels:  10  Number of levels for PrismC:   9
 Defaulting to unpruned grid for atomic number  46.
 Defaulting to unpruned grid for atomic number  46.
 Defaulting to unpruned grid for atomic number  46.
 Defaulting to unpruned grid for atomic number  46.
 Defaulting to unpruned grid for atomic number  46.
 Defaulting to unpruned grid for atomic number  46.
 Defaulting to unpruned grid for atomic number  46.
 Defaulting to unpruned grid for atomic number  46.
 E= -3011.13718081610    
 DIIS: error= 3.29D-02 at cycle   1 NSaved=   1.
 NSaved= 1 IEnMin= 1 EnMin= -3011.13718081610     IErMin= 1 ErrMin= 3.29D-02
 ErrMax= 3.29D-02  0.00D+00 EMaxC= 1.00D-01 BMatC= 4.42D+00 BMatP= 4.42D+00
 IDIUse=3 WtCom= 6.71D-01 WtEn= 3.29D-01
 Coeff-Com:  0.100D+01
 Coeff-En:   0.100D+01
 Coeff:      0.100D+01
 Gap=    -0.884 Goal=   None    Shift=    0.000
 GapD=   -0.884 DampG=0.250 DampE=0.250 DampFc=0.1250 IDamp=-1.
 Damping current iteration by 1.25D-01
 RMSDP=2.53D-02 MaxDP=5.74D+00              OVMax= 8.72D-01

 Cycle   2  Pass 1  IDiag  1:
 RMSU=  3.17D-03    CP:  1.00D+00
 E= -3012.01107124546     Delta-E=       -0.873890429364 Rises=F Damp=T
 DIIS: error= 1.87D-02 at cycle   2 NSaved=   2.
 NSaved= 2 IEnMin= 2 EnMin= -3012.01107124546     IErMin= 2 ErrMin= 1.87D-02
 ErrMax= 1.87D-02  0.00D+00 EMaxC= 1.00D-01 BMatC= 1.30D+00 BMatP= 4.42D+00
 IDIUse=3 WtCom= 8.13D-01 WtEn= 1.87D-01
 Coeff-Com: -0.715D+00 0.171D+01
 Coeff-En:   0.165D+00 0.835D+00
 Coeff:     -0.550D+00 0.155D+01
 Gap=     0.191 Goal=   None    Shift=    0.000
 RMSDP=7.70D-03 MaxDP=9.90D-01 DE=-8.74D-01 OVMax= 9.47D-01

 Cycle   3  Pass 1  IDiag  1:
 RMSU=  7.33D-03    CP:  9.65D-01  2.75D-01
 E= -2999.17284752006     Delta-E=       12.838223725401 Rises=F Damp=F
 DIIS: error= 5.71D-02 at cycle   3 NSaved=   3.
 NSaved= 3 IEnMin= 2 EnMin= -3012.01107124546     IErMin= 2 ErrMin= 1.87D-02
 ErrMax= 5.71D-02  0.00D+00 EMaxC= 1.00D-01 BMatC= 1.03D+01 BMatP= 1.30D+00
 IDIUse=2 WtCom= 0.00D+00 WtEn= 1.00D+00
 EnCoef did     1 forward-backward iterations
 Coeff-En:   0.237D-01 0.862D+00 0.114D+00
 Coeff:      0.237D-01 0.862D+00 0.114D+00
 Gap=     0.000 Goal=   None    Shift=    0.000
 RMSDP=8.83D-03 MaxDP=1.84D+00 DE= 1.28D+01 OVMax= 7.45D-01

 Cycle   4  Pass 1  IDiag  1:
 RMSU=  5.87D-03    CP:  9.60D-01  1.19D+00  1.92D-01
 E= -3009.50881973755     Delta-E=      -10.335972217488 Rises=F Damp=F
 DIIS: error= 5.81D-02 at cycle   4 NSaved=   4.
 NSaved= 4 IEnMin= 2 EnMin= -3012.01107124546     IErMin= 2 ErrMin= 1.87D-02
 ErrMax= 5.81D-02  0.00D+00 EMaxC= 1.00D-01 BMatC= 5.93D+00 BMatP= 1.30D+00
 IDIUse=2 WtCom= 0.00D+00 WtEn= 1.00D+00
 EnCoef did   100 forward-backward iterations
 Coeff-En:   0.549D+00 0.111D-01 0.273D-04 0.440D+00
 Coeff:      0.549D+00 0.111D-01 0.273D-04 0.440D+00
 Gap=    -0.026 Goal=   None    Shift=    0.000
 RMSDP=5.92D-03 MaxDP=2.02D+00 DE=-1.03D+01 OVMax= 5.56D-01

 Cycle   5  Pass 1  IDiag  1:
 RMSU=  2.75D-03    CP:  9.62D-01  2.40D-01  1.75D-01  2.70D-01
 E= -3014.76438229805     Delta-E=       -5.255562560504 Rises=F Damp=F
 DIIS: error= 1.92D-02 at cycle   5 NSaved=   5.
 NSaved= 5 IEnMin= 5 EnMin= -3014.76438229805     IErMin= 2 ErrMin= 1.87D-02
 ErrMax= 1.92D-02  0.00D+00 EMaxC= 1.00D-01 BMatC= 6.94D-01 BMatP= 1.30D+00
 IDIUse=3 WtCom= 8.08D-01 WtEn= 1.92D-01
 Coeff-Com: -0.254D+00 0.758D+00 0.114D-01 0.191D-01 0.465D+00
 Coeff-En:   0.960D-01 0.000D+00 0.000D+00 0.000D+00 0.904D+00
 Coeff:     -0.187D+00 0.613D+00 0.924D-02 0.154D-01 0.549D+00
 Gap=     0.237 Goal=   None    Shift=    0.000
 RMSDP=2.05D-03 MaxDP=2.08D-01 DE=-5.26D+00 OVMax= 1.76D-01

 Cycle   6  Pass 1  IDiag  1:
 RMSU=  1.72D-03    CP:  9.59D-01  1.67D-01  1.31D-01  2.45D-01  6.21D-01
 E= -3015.12272090073     Delta-E=       -0.358338602675 Rises=F Damp=F
 DIIS: error= 1.71D-02 at cycle   6 NSaved=   6.
 NSaved= 6 IEnMin= 6 EnMin= -3015.12272090073     IErMin= 6 ErrMin= 1.71D-02
 ErrMax= 1.71D-02  0.00D+00 EMaxC= 1.00D-01 BMatC= 2.93D-01 BMatP= 6.94D-01
 IDIUse=3 WtCom= 8.29D-01 WtEn= 1.71D-01
 Coeff-Com: -0.162D+00 0.423D+00-0.189D-01-0.257D-01 0.378D+00 0.406D+00
 Coeff-En:   0.000D+00 0.000D+00 0.000D+00 0.000D+00 0.277D+00 0.723D+00
 Coeff:     -0.134D+00 0.351D+00-0.156D-01-0.213D-01 0.361D+00 0.460D+00
 Gap=     0.142 Goal=   None    Shift=    0.000
 RMSDP=1.11D-03 MaxDP=1.14D-01 DE=-3.58D-01 OVMax= 1.12D-01

 Cycle   7  Pass 1  IDiag  1:
 RMSU=  6.03D-04    CP:  9.62D-01  1.64D-01  1.17D-01  2.34D-01  7.67D-01
                    CP:  5.17D-01
 E= -3015.35813383570     Delta-E=       -0.235412934971 Rises=F Damp=F
 DIIS: error= 3.80D-03 at cycle   7 NSaved=   7.
 NSaved= 7 IEnMin= 7 EnMin= -3015.35813383570     IErMin= 7 ErrMin= 3.80D-03
 ErrMax= 3.80D-03  0.00D+00 EMaxC= 1.00D-01 BMatC= 2.68D-02 BMatP= 2.93D-01
 IDIUse=3 WtCom= 9.62D-01 WtEn= 3.80D-02
 Coeff-Com: -0.724D-01 0.147D+00-0.110D-01-0.549D-02 0.622D-01 0.211D+00
 Coeff-Com:  0.670D+00
 Coeff-En:   0.000D+00 0.000D+00 0.000D+00 0.000D+00 0.000D+00 0.111D-01
 Coeff-En:   0.989D+00
 Coeff:     -0.696D-01 0.141D+00-0.106D-01-0.528D-02 0.598D-01 0.203D+00
 Coeff:      0.682D+00
 Gap=     0.154 Goal=   None    Shift=    0.000
 RMSDP=4.29D-04 MaxDP=3.20D-02 DE=-2.35D-01 OVMax= 5.85D-02

 Cycle   8  Pass 1  IDiag  1:
 RMSU=  3.60D-04    CP:  9.60D-01  1.65D-01  1.14D-01  2.41D-01  7.47D-01
                    CP:  6.14D-01  7.60D-01
 E= -3015.37106126716     Delta-E=       -0.012927431457 Rises=F Damp=F
 DIIS: error= 2.98D-03 at cycle   8 NSaved=   8.
 NSaved= 8 IEnMin= 8 EnMin= -3015.37106126716     IErMin= 8 ErrMin= 2.98D-03
 ErrMax= 2.98D-03  0.00D+00 EMaxC= 1.00D-01 BMatC= 1.42D-02 BMatP= 2.68D-02
 IDIUse=3 WtCom= 9.70D-01 WtEn= 2.98D-02
 Coeff-Com: -0.345D-01 0.512D-01-0.269D-02 0.295D-02-0.601D-01 0.460D-01
 Coeff-Com:  0.506D+00 0.491D+00
 Coeff-En:   0.000D+00 0.000D+00 0.000D+00 0.000D+00 0.000D+00 0.000D+00
 Coeff-En:   0.317D+00 0.683D+00
 Coeff:     -0.335D-01 0.497D-01-0.261D-02 0.286D-02-0.583D-01 0.446D-01
 Coeff:      0.500D+00 0.497D+00
 Gap=     0.154 Goal=   None    Shift=    0.000
 RMSDP=2.63D-04 MaxDP=2.01D-02 DE=-1.29D-02 OVMax= 4.97D-02

 Cycle   9  Pass 1  IDiag  1:
 RMSU=  1.73D-04    CP:  9.60D-01  1.68D-01  1.10D-01  2.44D-01  7.37D-01
                    CP:  6.06D-01  9.91D-01  6.28D-01
 E= -3015.38504734422     Delta-E=       -0.013986077065 Rises=F Damp=F
 DIIS: error= 7.35D-04 at cycle   9 NSaved=   9.
 NSaved= 9 IEnMin= 9 EnMin= -3015.38504734422     IErMin= 9 ErrMin= 7.35D-04
 ErrMax= 7.35D-04  0.00D+00 EMaxC= 1.00D-01 BMatC= 1.09D-03 BMatP= 1.42D-02
 IDIUse=3 WtCom= 9.93D-01 WtEn= 7.35D-03
 Coeff-Com: -0.175D-01 0.262D-01-0.638D-03 0.186D-02-0.354D-01 0.312D-02
 Coeff-Com:  0.167D+00 0.267D+00 0.588D+00
 Coeff-En:   0.000D+00 0.000D+00 0.000D+00 0.000D+00 0.000D+00 0.000D+00
 Coeff-En:   0.000D+00 0.000D+00 0.100D+01
 Coeff:     -0.174D-01 0.260D-01-0.634D-03 0.185D-02-0.351D-01 0.309D-02
 Coeff:      0.166D+00 0.265D+00 0.591D+00
 Gap=     0.153 Goal=   None    Shift=    0.000
 RMSDP=9.04D-05 MaxDP=5.05D-03 DE=-1.40D-02 OVMax= 8.91D-03

 Cycle  10  Pass 1  IDiag  1:
 RMSU=  6.48D-05    CP:  9.60D-01  1.68D-01  1.09D-01  2.44D-01  7.34D-01
                    CP:  6.11D-01  9.97D-01  7.27D-01  7.14D-01
 E= -3015.38592824112     Delta-E=       -0.000880896900 Rises=F Damp=F
 DIIS: error= 6.45D-04 at cycle  10 NSaved=  10.
 NSaved=10 IEnMin=10 EnMin= -3015.38592824112     IErMin=10 ErrMin= 6.45D-04
 ErrMax= 6.45D-04  0.00D+00 EMaxC= 1.00D-01 BMatC= 2.93D-04 BMatP= 1.09D-03
 IDIUse=3 WtCom= 9.94D-01 WtEn= 6.45D-03
 Coeff-Com: -0.528D-02 0.891D-02-0.169D-03 0.138D-03-0.967D-02-0.922D-02
 Coeff-Com: -0.159D-01 0.426D-01 0.368D+00 0.621D+00
 Coeff-En:   0.000D+00 0.000D+00 0.000D+00 0.000D+00 0.000D+00 0.000D+00
 Coeff-En:   0.000D+00 0.000D+00 0.154D+00 0.846D+00
 Coeff:     -0.525D-02 0.885D-02-0.168D-03 0.137D-03-0.960D-02-0.916D-02
 Coeff:     -0.158D-01 0.423D-01 0.367D+00 0.622D+00
 Gap=     0.154 Goal=   None    Shift=    0.000
 RMSDP=3.78D-05 MaxDP=1.92D-03 DE=-8.81D-04 OVMax= 5.44D-03

 Cycle  11  Pass 1  IDiag  1:
 RMSU=  2.50D-05    CP:  9.60D-01  1.69D-01  1.09D-01  2.45D-01  7.33D-01
                    CP:  6.16D-01  1.00D+00  7.37D-01  8.34D-01  7.48D-01
 E= -3015.38618499898     Delta-E=       -0.000256757863 Rises=F Damp=F
 DIIS: error= 1.91D-04 at cycle  11 NSaved=  11.
 NSaved=11 IEnMin=11 EnMin= -3015.38618499898     IErMin=11 ErrMin= 1.91D-04
[...]
 0.00000023,0.00000016,0.00000190,-0.00000490,0.00000780,0.00000126,0.0
 0000195,0.00000444,-0.00000042,-0.00000072,-0.00000102,0.00000311,0.00
 000764,-0.00000636,-0.00000097,0.00000065,0.00000087,0.00000036,-0.000
 00091,-0.00000026,-0.00000009,0.00000032,-0.00000021,0.00000013,0.0000
 0004,0.00000006,-0.00000036,-0.00000028,0.00000004,0.00000045,-0.00000
 161,0.00000031,-0.00000056,-0.00000024,0.00000009,-0.00000014,-0.00000
 012,-0.00000022,-0.00000105,-0.00000022,-0.00000059,-0.00000008,-0.000
 00041,0.00000010,-0.00000007,-0.00000031,0.00000015,-0.00000043,0.0000
 0039,-0.00000048,-0.00000035,0.00000028,0.00000065,0.00000345,0.000003
 41,-0.00005880,-0.00001811,-0.00000159,0.00016569,-0.00000028,-0.00000
 388,0.00003012,0.00003380,-0.00003411,0.00042535,-0.00000336,0.0000392
 9,-0.00045597,0.00016494,-0.00012168,0.00061403,-0.00006188,-0.0000555
 3,0.00025705,-0.00000223,0.00000052,0.00001263,0.00000972,-0.00000288,
 -0.00000990,0.00000612,-0.00000516,-0.00004373,-0.00002303,-0.00002969
 ,0.00002892,-0.00001013,0.00000271,0.00000683,-0.00000138,0.00000284,-
 0.00000056,0.00000447,0.00000262,0.00000160,0.00000161,0.00000588,0.00
 000003,-0.00000458,-0.00000254,-0.00000511,0.00001260,-0.00000291,0.00
 000801,-0.00000458,0.00000068,-0.00000238,-0.00000809,0.00000136,-0.00
 000527,0.00000847,-0.00000523,0.00000209,-0.00000725,0.00000532,-0.000
 00110,0.00000274,-0.00000259,0.00000193,0.00000079,0.00000149,-0.00000
 014,0.00000086,0.00000170,-0.00000121,0.00000271,-0.00000478,-0.000000
 51,0.00000983,-0.00000124,-0.00000602,0.00001717,0.00002013,-0.0000249
 9,-0.00123540,-0.00154830,0.00027572,-0.00672913,-0.00387364,-0.049542
 15,0.00753972,0.00539132,0.04496284,0.00003947,0.00001584,-0.00002474,
 -0.00009267,0.00000176,-0.00009843,0.00001162,0.00000627,0.00003831,0.
 00001354,0.00000735,-0.00000482,-0.00000693,0.00000608,-0.00000641,0.0
 0001374,-0.00000183,0.00000086,-0.00000723,0.00000010,0.00001662,0.000
 01547,-0.00000624,-0.00001999,-0.00000169,0.00000257,0.00000181,-0.000
 00425,0.00000036,0.00000156,0.00001082,-0.00000470,0.00000263,0.000004
 23,-0.00000790,0.00000097,-0.00000079,0.00000260,0.00000120,-0.0000078
 5,0.00000131,0.00000932,0.00000700,-0.00000451,-0.00000097,0.00002792,
 0.00001097,0.00001703,-0.00000486,-0.00000824,-0.00000541,0.00000289,-
 0.00000027,0.00000030,0.00000419,-0.00000084,0.00001309,0.00000106,0.0
 0000254,-0.00002800,-0.00000552,-0.00001495,0.00000537,-0.00000052,-0.
 00000025,0.00000940,-0.00000059,0.00000209,-0.00000223,0.00000519,0.00
 000069,-0.00000034,-0.00000361,-0.00000116,-0.00000561,-0.00000098,0.0
 0000212,0.00001239,0.00000754,0.00000002,0.00000197,-0.00000692,0.0000
 1142,-0.00001424,0.00001891,-0.00001247,0.00000580,-0.00000474,0.00001
 700,0.00000376,0.00000043,-0.00000297,0.00000248,0.00000144,-0.0000025
 2,-0.00000225,0.00000558,0.00000456,0.00000218,-0.00001854,0.00003424,
 -0.00000248,0.00001491,0.00000474,0.00001027,-0.00000163,-0.00000215,0
 .00000201,0.00002816,-0.00000666,0.00001557,0.00000160,0.00000354,-0.0
 0000186,0.00000262,0.00000518,-0.00000018,0.00000067,-0.00000186,0.000
 00309,0.00000517,-0.00000700,-0.00000373,-0.00032336,0.00035777,0.0000
 8922,-0.00011360,-0.00057244,0.00048142,0.00004906,0.00002869,-0.00005
 873,0.00042230,0.00070112,-0.00052522,-0.00036660,-0.00065836,-0.00085
 263,-0.00106131,-0.00219523,-0.00104256,0.00012796,0.00012887,-0.00004
 071,0.00002987,-0.00008395,0.00007436,0.00048435,0.00007988,-0.0000507
 0,0.00003774,-0.00002582,-0.00000230,0.00000491,-0.00006145,0.00000744
 ,0.00006453,-0.00000423,-0.00003670,0.00002525,-0.00007701,0.00001563,
 -0.00002305,-0.00006078,0.00002688,-0.00004202,0.00001485,-0.00000306,
 0.00005627,0.00004394,-0.00011031,-0.00004284,-0.00000038,0.00029238,0
 .00001940,0.00000357,-0.00007048,-0.00002443,0.00000475,-0.00008941,0.
 00000874,-0.00001471,-0.00002608,-0.00000085,-0.00000945,-0.00003106,0
 .00000731,0.00001366,0.00003634,0.00000866,0.00000466,-0.00000471,0.00
 002633,0.00005812,-0.00003106,-0.00003674,0.00009056,-0.00000686,-0.00
 006282,0.00002368,0.00002723,-0.00000394,0.00006700,0.00000245,-0.0038
 2956,0.01155386,0.00631776,-0.12339882,0.02009247,0.11515647,-0.010745
 36,0.00439606,0.02180378,0.12961257,-0.00005699,0.00001538,-0.00008437
 ,0.00008705,-0.00001858,0.00007953,-0.00000238,-0.00000305,-0.00002153
 ,-0.00001059,0.00000011,0.00000581,0.00000527,-0.00000448,0.00000226,-
 0.00000988,0.00000085,-0.00000103,0.00000731,-0.00000409,-0.00001195,-
 0.00000885,0.00000453,0.00001211,0.00000138,-0.00000161,-0.00000070,0.
 00000241,-0.00000001,-0.00000118,-0.00000648,0.00000264,-0.00000164,-0
 .00000254,0.00000515,0.00000033,0.00000102,-0.00000102,-0.00000059,0.0
 0000478,-0.00000102,-0.00000618,-0.00000458,0.00000263,0.00000050,-0.0
 0001309,-0.00000556,-0.00000773,0.00000577,0.00000380,0.00000197,-0.00
 000241,-0.00000006,-0.00000071,-0.00000387,0.00000081,-0.00001099,-0.0
 0000591,0.00000210,0.00001788,0.00000376,0.00000840,-0.00000284,-0.000
 00004,0.00000037,-0.00000626,0.00000019,-0.00000126,0.00000159,-0.0000
 0312,-0.00000047,0.00000019,0.00000392,0.00000395,0.00000329,-0.000000
 78,-0.00000155,-0.00001019,-0.00000515,0.00000008,-0.00000215,0.000006
 46,-0.00001300,0.00001477,-0.00001410,0.00000717,-0.00000468,0.0000031
 2,-0.00001157,-0.00000261,-0.00000065,0.00000177,-0.00000199,-0.000001
 13,0.00000129,0.00000141,-0.00000394,-0.00000251,-0.00000140,0.0000118
 4,-0.00002184,0.00000590,-0.00001063,-0.00000251,-0.00000634,-0.000000
 65,0.00000016,-0.00000198,-0.00001848,0.00000389,-0.00001180,0.0000002
 4,-0.00000203,0.00000108,-0.00000213,-0.00000307,-0.00000004,-0.000001
 11,0.00000085,-0.00000294,-0.00000437,0.00000464,0.00000383,-0.0007598
 1,0.00062804,-0.00001832,-0.00035159,-0.00091742,0.00033144,-0.0000292
 7,-0.00003134,-0.00003805,-0.00077880,0.00079448,0.00020036,-0.0007872
 3,-0.00049483,-0.00099098,0.00635135,0.00681382,-0.00105436,-0.0004089
 9,-0.00218143,0.00049475,-0.00008144,0.00019974,-0.00021141,0.00088755
 ,0.00051704,0.00034694,0.00000693,-0.00003646,-0.00003539,-0.00000206,
 0.00005777,-0.00001706,-0.00005347,0.00001412,0.00002449,-0.00003299,0
 .00004946,-0.00000549,0.00003393,0.00002316,-0.00002785,0.00002884,0.0
 0001799,-0.00001452,-0.00003104,-0.00003903,0.00011007,0.00004723,-0.0
 0001308,-0.00021979,-0.00001559,0.00000627,0.00004724,0.00000888,0.000
 00442,0.00005912,-0.00000069,0.00000881,0.00002143,-0.00001282,0.00001
 699,0.00002966,-0.00000146,-0.00001428,-0.00002376,-0.00000456,0.00000
 016,0.00000352,-0.00001937,-0.00003712,0.00002082,0.00002796,-0.000061
 05,0.00000755,0.00004808,-0.00001767,-0.00002136,0.00000573,-0.0000696
 5,-0.00000078,0.02160106,-0.02569948,-0.03064440,0.01654401,-0.0544705
 5,-0.02764019,-0.00682158,0.00417116,0.01347767,-0.03052176,0.06777734
 ,-0.00004284,-0.00001185,0.00001090,0.00003563,-0.00000535,0.00000759,
 0.00000113,-0.00001483,-0.00001549,-0.00000510,0.00000698,0.00000801,0
 .00000246,-0.00000427,-0.00001569,-0.00000761,0.00000090,0.00000190,0.
 00000400,-0.00001430,0.00000213,-0.00000503,0.00001122,0.00000828,0.00
 000356,0.00000073,0.00000217,0.00000237,-0.00000325,-0.00000143,-0.000
 00689,0.00000032,-0.00000054,-0.00000225,0.00001110,0.00000482,0.00000
 250,0.00000261,-0.00000114,0.00000346,-0.00000293,-0.00000365,-0.00000
 646,-0.00000011,0.00000153,-0.00000303,-0.00000315,-0.00000026,0.00000
 519,-0.00000033,0.00000034,-0.00000413,-0.00000040,-0.00000141,0.00000
 042,0.00000108,0.00000864,0.00000222,0.00000641,0.00000022,-0.00000403
 ,0.00000410,0.00000143,0.00000157,-0.00000083,0.00000222,0.00000100,0.
 00000005,0.00000006,-0.00000373,-0.00000035,-0.00000244,-0.00000169,0.
 00000172,-0.00000219,0.00000713,0.00000261,0.00001585,-0.00001074,-0.0
 0000189,-0.00000323,0.00001496,-0.00000400,-0.00001414,-0.00000885,0.0
 0000137,0.00000601,0.00000115,-0.00000226,-0.00000108,0.00000079,0.000
 00054,-0.00000034,-0.00000217,-0.00000030,0.00000096,-0.00000105,-0.00
 000038,-0.00000029,0.00000379,-0.00000562,-0.00000123,-0.00000172,-0.0
 0000086,-0.00000153,0.00000139,-0.00000071,0.00000033,-0.00000319,0.00
 000200,-0.00000150,0.00000123,0.00000222,-0.00000089,-0.00000174,-0.00
 000070,0.00000140,0.00000138,0.00000080,0.00000199,-0.00000140,0.00000
 152,-0.00000179,-0.00009971,0.00008431,-0.00010676,-0.00026231,0.00028
 909,-0.00002452,-0.00002398,-0.00003950,0.00000899,0.00066651,-0.00061
 486,-0.00018791,-0.00069322,0.00017569,-0.00012940,0.00195000,0.001970
 27,0.00089865,-0.00031529,-0.00057521,-0.00024058,-0.00003608,0.000096
 17,-0.00001012,0.00007093,0.00017704,0.00004970,-0.00002393,-0.0000048
 6,0.00000915,0.00004477,0.00008791,-0.00005367,0.00000137,-0.00000386,
 -0.00000393,-0.00000085,0.00001196,-0.00000625,0.00000434,0.00001693,-
 0.00000040,0.00001566,-0.00000017,-0.00000380,-0.00003584,-0.00001595,
 0.00004196,0.00002530,-0.00003287,-0.00010696,-0.00000632,0.00001202,0
 .00002575,-0.00000618,0.00001389,0.00002462,0.00002022,-0.00000526,0.0
 0001509,-0.00001997,0.00002145,0.00001259,0.,-0.00000865,-0.00001008,-
 0.00000449,0.00000219,0.00000130,-0.00001014,-0.00001653,0.00001054,0.
 00000053,-0.00000775,0.00000224,-0.00000609,-0.00000227,0.00000538,-0.
 00003368,-0.00007593,0.00004170,-0.00116420,-0.00774138,0.00627403,0.1
 1494213,-0.03259148,-0.23153849,-0.00270016,0.00087002,0.00249008,-0.1
 2675095,0.04092728,0.24070605,0.00007117,-0.00001349,0.00005802,-0.000
 11268,0.00002196,-0.00013142,0.00001246,-0.00000044,0.00003876,0.00001
 156,0.00000626,-0.00000490,-0.00000719,0.00000421,-0.00000777,0.000013
 20,-0.00000058,0.00000105,-0.00000814,0.00000056,0.00001667,0.00001472
 ,-0.00000406,-0.00001907,-0.00000076,0.00000312,0.00000200,-0.00000365
 ,-0.00000165,0.00000233,0.00000946,-0.00000437,0.00000287,0.00000138,-
 0.00000328,0.00000141,-0.00000038,0.00000250,0.00000109,-0.00000675,0.
 00000015,0.00000802,0.00000487,-0.00000455,-0.00000051,0.00003246,0.00
 000889,0.00002049,-0.00000444,-0.00001105,-0.00000425,0.00000069,-0.00
 000043,-0.00000165,0.00000876,-0.00000091,0.00002617,0.00000676,0.0000
 0951,-0.00003559,-0.00000990,-0.00001279,0.00000693,0.00000075,-0.0000
 0126,0.00001330,0.00000052,0.00000208,-0.00000284,0.00000351,0.0000009
 0,-0.00000185,-0.00000652,0.00000329,-0.00001022,0.00000333,0.00000140
 ,0.00002151,0.00000376,-0.00000048,0.00000226,-0.00000204,0.00001119,-
 0.00002187,0.00001981,-0.00001131,0.00001097,-0.00000491,0.00001787,0.
 00000420,0.00000153,-0.00000268,0.00000359,0.00000073,-0.00000222,-0.0
 0000219,0.00000604,0.00000402,0.00000204,-0.00001914,0.00003079,-0.000
 00794,0.00001532,0.00000369,0.00000992,-0.00000067,-0.00000107,0.00000
 271,0.00002825,-0.00000537,0.00001609,0.00000028,0.00000390,-0.0000020
 4,0.00000214,0.00000445,0.00000060,0.00000263,-0.00000100,0.00000645,0
 .00000631,-0.00000673,-0.00000721,-0.00032713,0.00036462,0.00000825,-0
 .00009799,-0.00050348,-0.00052153,0.00005176,0.00002203,0.00005640,0.0
 0041264,0.00066333,0.00062827,-0.00040305,-0.00076480,0.00078761,-0.00
 107382,-0.00228294,0.00076465,0.00010779,0.00012851,0.00002661,0.00003
 510,-0.00009007,-0.00007365,0.00047738,0.00008669,0.00003337,0.0000402
 3,-0.00004071,-0.00000022,0.00003918,-0.00000322,-0.00003825,0.0000746
 9,-0.00002112,-0.00004056,0.00003307,-0.00007370,0.00000808,-0.0000261
 7,-0.00005087,0.00002482,-0.00002369,0.00001097,-0.00000442,0.00002413
 ,0.00004876,-0.00006853,-0.00005730,-0.00004898,0.00020405,0.00003739,
 0.00002161,-0.00004565,-0.00001044,0.00001777,-0.00006165,-0.00001094,
 -0.00000041,-0.00001514,0.00000916,-0.00000776,-0.00001933,0.00000358,
 0.00000249,0.00002589,0.00000622,0.00000036,-0.00000183,0.00002147,0.0
 0005227,-0.00002471,-0.00003790,0.00008744,-0.00000452,-0.00007732,0.0
 0002559,0.00003796,-0.00003373,0.00002244,0.00004256,-0.00377652,0.012
 13869,-0.00533732,-0.12022587,0.02982317,-0.11126775,-0.01051243,0.006
 38985,-0.02151349,0.00901520,-0.00482772,0.01447795,0.12621006,-0.0000
 1216,-0.00000772,0.00004453,0.00006743,-0.00001633,0.00010681,-0.00000
 975,-0.00000009,-0.00003822,-0.00001085,-0.00000680,0.00001058,0.00000
 253,-0.00000308,0.00000232,-0.00000854,0.00000184,-0.00000183,0.000008
 42,-0.00000165,-0.00001178,-0.00001227,0.00000491,0.00001718,0.0000013
 1,-0.00000153,-0.00000120,0.00000092,0.00000157,-0.00000312,-0.0000074
 8,0.00000344,-0.00000384,0.00000032,0.00000443,0.00000101,0.00000074,-
 0.00000047,-0.00000143,0.00000569,-0.00000030,-0.00000649,-0.00000411,
 0.00000309,-0.00000007,-0.00001936,-0.00001364,-0.00000304,0.00000557,
 0.00001107,0.00000084,-0.00000053,0.00000282,0.00000096,-0.00000493,-0
 .00000213,-0.00002170,-0.00000759,-0.00000724,0.00003258,0.00000817,0.
 00001942,-0.00000802,-0.00000150,-0.00000034,-0.00001145,0.00000127,0.
 00000080,0.00000475,-0.00000190,-0.00000118,0.00000148,0.00000310,0.00
 000718,-0.00000892,-0.00000601,-0.00000172,-0.00002452,-0.00000048,0.0
 0000231,-0.00000032,-0.00000026,-0.00002327,0.00002956,-0.00001669,0.0
 0000794,-0.00001176,0.00000352,-0.00001281,-0.00000362,-0.00000162,0.0
 0000133,-0.00000261,-0.00000053,0.00000134,0.00000142,-0.00000444,-0.0
 0000229,-0.00000152,0.00001694,-0.00002264,0.00000244,-0.00001166,-0.0
 0000228,-0.00000885,0.00000266,0.00000110,-0.00000138,-0.00002151,0.00
 000527,-0.00001063,-0.00000035,-0.00000183,0.00000132,-0.00000089,-0.0
 0000233,-0.00000078,-0.00000171,-0.00000017,-0.00000513,-0.00000369,0.
 00000381,0.00000507,-0.00074490,0.00061345,-0.00003019,-0.00036178,-0.
 00082137,-0.00044287,-0.00003181,-0.00004087,0.00003881,-0.00077395,0.
 00076925,-0.00013288,-0.00086348,-0.00057760,0.00095282,0.00654499,0.0
 0678946,0.00161315,-0.00043168,-0.00212569,-0.00058318,-0.00010318,0.0
 0020005,0.00023379,0.00089961,0.00049999,-0.00024804,-0.00002243,-0.00
 003024,0.00005375,-0.00001895,0.00004813,0.00000112,-0.00005158,0.0000
 1843,0.00002016,-0.00003025,0.00004883,-0.00000216,0.00002118,0.000021
 58,-0.00001898,0.00003283,0.00000436,-0.00001165,-0.00002896,-0.000019
 02,0.00005415,0.00002363,0.00003352,-0.00014141,-0.00001778,-0.0000143
 7,0.00003592,0.00001166,-0.00001276,0.00004341,0.00000369,0.00000490,0
 .00000560,-0.00001187,0.00000534,0.00002978,-0.00000126,-0.00000095,-0
 .00001934,-0.00000430,-0.00000130,0.00000090,-0.00001674,-0.00003753,0
 .00001708,0.00002495,-0.00005492,0.00000434,0.00005102,-0.00001808,-0.
 00002361,0.00001450,-0.00004384,-0.00001202,0.02106237,-0.02901734,0.0
 2772103,0.02639129,-0.06134559,0.04364451,-0.00684803,0.00546216,-0.01
 326816,-0.00343475,0.00301133,-0.00299924,-0.04124183,0.07667892,0.000
 05215,0.00000099,0.00001424,-0.00004255,0.00002945,-0.00006393,0.00000
 174,0.00000273,0.00002740,0.00000522,0.00000325,-0.00001435,0.00000150
 ,0.00000242,0.00001192,0.00000189,-0.00000126,-0.00000245,-0.00000244,
 0.00000565,-0.00000418,0.00000601,-0.00000574,-0.00001097,-0.00000215,
 -0.00000088,-0.00000061,0.00000024,-0.00000030,0.00000502,0.00000501,-
 0.00000022,0.00000203,-0.00000262,-0.00000555,-0.00000506,-0.00000201,
 -0.00000330,0.00000202,-0.00000185,-0.00000022,0.00000175,0.00000225,0
 .00000004,-0.00000115,0.00000565,0.00001436,-0.00000355,-0.00000399,-0
 .00001164,0.00000274,0.00000198,-0.00000368,-0.00000207,0.00000154,0.0
 0000270,0.00001044,0.00000196,0.00000856,-0.00001379,-0.00000026,-0.00
 001714,0.00000435,0.00000011,0.00000210,0.00000645,-0.00000226,-0.0000
 0377,-0.00000480,0.00000220,0.00000203,0.00000014,0.00000339,-0.000011
 21,0.00001672,-0.00000061,0.00000195,0.00001210,0.00000662,0.00000143,
 -0.00000051,-0.00000127,0.00002525,-0.00001395,0.00000956,0.00000111,0
 .00000772,-0.00000091,0.00000268,0.00000159,0.00000115,0.00000066,0.00
 000208,0.00000108,0.00000082,-0.00000084,0.00000140,-0.00000103,0.0000
 0020,-0.00000624,-0.00000150,-0.00000418,0.00000206,-0.00000127,0.0000
 0248,-0.00000164,0.00000188,-0.00000023,0.00000367,-0.00000059,0.00000
 119,-0.00000282,-0.00000210,0.00000040,0.00000036,-0.00000125,0.000000
 03,0.00000060,0.00000155,0.00000294,0.00000174,0.00000010,-0.00000211,
 0.00000864,-0.00000971,-0.00005908,0.00024065,-0.00036121,-0.00008080,
 0.00002415,0.00003660,0.00000966,-0.00073841,0.00072414,-0.00014782,0.
 00060697,-0.00024099,-0.00005417,-0.00142208,-0.00152134,0.00086615,0.
 00027580,0.00038845,-0.00026456,0.00002946,-0.00008305,0.00000193,0.00
 001899,-0.00011761,-0.00002133,0.00002137,-0.00000205,0.00001569,-0.00
 002465,-0.00003815,0.00001437,0.00000495,-0.00000902,0.00000171,0.0000
 0819,-0.00000792,-0.00000240,-0.00000973,-0.00000512,-0.00000314,0.000
 01857,-0.00001185,0.00000536,0.00000225,0.00001658,0.00003570,-0.00001
 565,-0.00005378,-0.00003717,0.00002286,0.00002114,0.00000950,0.0000100
 8,0.00001309,0.00001231,-0.00002657,0.00001439,0.00001285,0.00001513,-
 0.00000199,0.00000137,0.00000018,-0.00001499,-0.00000398,0.00000182,-0
 .00000478,0.00000275,0.00000512,0.00000917,-0.00000310,-0.00000112,0.0
 0000388,-0.00000009,-0.00000423,0.00000362,0.00000278,0.00001143,0.000
 03859,-0.00000888,0.00297704,0.00485629,0.00949307,-0.11133192,0.04852
 028,-0.22733246,0.00188349,-0.00050727,0.00088505,-0.01455416,0.004912
 75,-0.01821146,0.12189390,-0.05660721,0.23487297\\0.00005367,0.0000057
 4,-0.00002838,-0.00002822,-0.00000283,0.00000243,-0.00000156,0.0000018
 5,0.00000511,-0.00000153,-0.00000383,-0.00000371,-0.00000255,-0.000000
 63,-0.00000066,-0.00000147,0.00000123,0.00000239,-0.00000528,-0.000000
 41,-0.00000118,0.00000457,-0.00000295,0.00000668,0.00000068,-0.0000004
 1,0.00000190,0.00000084,-0.00000024,0.00000068,-0.00000188,-0.00000033
 ,0.00000125,0.00000214,0.00000097,0.00000022,0.00000037,-0.00000070,0.
 00000024,-0.00000032,-0.00000046,-0.00000030,-0.00000005,-0.00000118,0
 .00000162,0.00000184,-0.00001629,-0.00000689,-0.00000395,0.00000041,0.
 00000569,0.00000121,0.00000050,-0.00000107,-0.00000091,0.00000030,-0.0
 0000181,0.00000064,0.00000216,-0.00000166,0.00000081,0.00000498,0.0000
 0322,-0.00000233,-0.00000003,-0.00000034,-0.00000245,-0.00000160,-0.00
 000233,-0.00000142,-0.00000127,-0.00000059,0.00000133,0.00000504,0.000
 00781,-0.00000224,-0.00000018,0.00000127,-0.00000438,-0.00000028,0.000
 00187,-0.00000136,0.00000044,-0.00000205,0.00000476,-0.00000283,0.0000
 0593,-0.00000092,0.00000413,-0.00000056,0.00000012,-0.00000101,0.00000
 020,-0.00000306,-0.00000300,0.00000228,-0.00000003,-0.00000147,0.00000
 064,0.00001201,-0.00000464,0.00000871,-0.00000071,-0.00000079,-0.00000
 331,-0.00000116,-0.00000233,-0.00000350,-0.00000022,0.00000940,-0.0000
 0428,-0.00000038,0.00000024,0.00000136,0.00000069,0.00000035,0.0000001
 6,-0.00000015,-0.00000139,0.00000217,0.00000195,0.00000129,-0.00000288
 ,-0.00002245,0.00001582,-0.00000014,0.00001219,0.00000268,0.00000231,-
 0.00000090,-0.00000220,0.00000304,-0.00000359,-0.00000075,-0.00000064,
 -0.00000010,0.00000138,0.00000086,0.00000548,0.00000137,-0.00000309,0.
 00000105,0.00000223,0.00000117,0.00000043,0.00000213,0.00000010,0.0000
 0178,-0.00001679,-0.00000254,-0.00000511,-0.00000227,0.00000401,0.0000
 0591,0.00000429,-0.00001047,0.00000766,0.00000023,-0.00000364,-0.00000
 431,0.00000020,-0.00000050,0.00000879,-0.00001154,-0.00000184,-0.00000
 082,0.00001580,-0.00001333,-0.00002986,-0.00000832,0.00001262,-0.00001
 435,-0.00000098,0.00001303,0.00000309,0.00000108,-0.00000060,0.0000129
 7,-0.00000479,0.00000776,-0.00000016,0.00000531,0.00000624,0.00000512,
 -0.00000260,-0.00000285,0.00000048,0.00000246,0.00000112,0.00000257,-0
 .00000140,-0.00000057,0.00000679,0.00000194,-0.00000686,0.00000244,0.0
 0000151,-0.00000214,-0.00000440,0.00000325,0.00000059,-0.00000158,-0.0
 0000320,0.00000087,-0.00000559,0.00000356,0.00000003,0.00000149,-0.000
 00316,-0.00000132,-0.00000136,0.00000242,-0.00000132,-0.00000123,0.000
 00100,-0.00000003,-0.00000153,0.00000143,-0.00000021\\\@


 In the race for quality, there is no finish line.
                               -- David T. Kearns
 Job cpu time:       0 days 23 hours 50 minutes 32.9 seconds.
 File lengths (MBytes):  RWF=   4344 Int=      0 D2E=      0 Chk=     46 Scr=      1
 Normal termination of Gaussian 09 at Mon May  8 23:32:53 2023.
