 Entering Gaussian System, Link 0=g09
 Input=tbu2cy-v4.com
 Output=tbu2cy-v4.log
 Initial command:
 /cluster/apps/gaussian/g09/l1.exe "/cluster/scratch/sroediger/michael/Gau-523427.inp" -scrdir="/cluster/scratch/sroediger/michael/"
 Entering Link 1 = /cluster/apps/gaussian/g09/l1.exe PID=    523436.
  
 Copyright (c) 1988,1990,1992,1993,1995,1998,2003,2009,2013,
            Gaussian, Inc.  All Rights Reserved.
  
 This is part of the Gaussian(R) 09 program.  It is based on
 the Gaussian(R) 03 system (copyright 2003, Gaussian, Inc.),
 the Gaussian(R) 98 system (copyright 1998, Gaussian, Inc.),
 the Gaussian(R) 94 system (copyright 1995, Gaussian, Inc.),
 the Gaussian 92(TM) system (copyright 1992, Gaussian, Inc.),
 the Gaussian 90(TM) system (copyright 1990, Gaussian, Inc.),
 the Gaussian 88(TM) system (copyright 1988, Gaussian, Inc.),
 the Gaussian 86(TM) system (copyright 1986, Carnegie Mellon
 University), and the Gaussian 82(TM) system (copyright 1983,
 Carnegie Mellon University). Gaussian is a federally registered
 trademark of Gaussian, Inc.
  
 This software contains proprietary and confidential information,
 including trade secrets, belonging to Gaussian, Inc.
  
 This software is provided under written license and may be
 used, copied, transmitted, or stored only in accord with that
 written license.
  
 The following legend is applicable only to US Government
 contracts under FAR:
  
                    RESTRICTED RIGHTS LEGEND
  
 Use, reproduction and disclosure by the US Government is
 subject to restrictions as set forth in subparagraphs (a)
 and (c) of the Commercial Computer Software - Restricted
 Rights clause in FAR 52.227-19.
  
 Gaussian, Inc.
 340 Quinnipiac St., Bldg. 40, Wallingford CT 06492
  
  
 ---------------------------------------------------------------
 Warning -- This program may not be used in any manner that
 competes with the business of Gaussian, Inc. or will provide
 assistance to any competitor of Gaussian, Inc.  The licensee
 of this program is prohibited from giving any competitor of
 Gaussian, Inc. access to this program.  By using this program,
 the user acknowledges that Gaussian, Inc. is engaged in the
 business of creating and licensing software in the field of
 computational chemistry and represents and warrants to the
 licensee that it is not a competitor of Gaussian, Inc. and that
 it will not use this program in any manner prohibited above.
 ---------------------------------------------------------------
  

 Cite this work as:
 Gaussian 09, Revision D.01,
 M. J. Frisch, G. W. Trucks, H. B. Schlegel, G. E. Scuseria, 
 M. A. Robb, J. R. Cheeseman, G. Scalmani, V. Barone, B. Mennucci, 
 G. A. Petersson, H. Nakatsuji, M. Caricato, X. Li, H. P. Hratchian, 
 A. F. Izmaylov, J. Bloino, G. Zheng, J. L. Sonnenberg, M. Hada, 
 M. Ehara, K. Toyota, R. Fukuda, J. Hasegawa, M. Ishida, T. Nakajima, 
 Y. Honda, O. Kitao, H. Nakai, T. Vreven, J. A. Montgomery, Jr., 
 J. E. Peralta, F. Ogliaro, M. Bearpark, J. J. Heyd, E. Brothers, 
 K. N. Kudin, V. N. Staroverov, T. Keith, R. Kobayashi, J. Normand, 
 K. Raghavachari, A. Rendell, J. C. Burant, S. S. Iyengar, J. Tomasi, 
 M. Cossi, N. Rega, J. M. Millam, M. Klene, J. E. Knox, J. B. Cross, 
 V. Bakken, C. Adamo, J. Jaramillo, R. Gomperts, R. E. Stratmann, 
 O. Yazyev, A. J. Austin, R. Cammi, C. Pomelli, J. W. Ochterski, 
 R. L. Martin, K. Morokuma, V. G. Zakrzewski, G. A. Voth, 
 P. Salvador, J. J. Dannenberg, S. Dapprich, A. D. Daniels, 
 O. Farkas, J. B. Foresman, J. V. Ortiz, J. Cioslowski, 
 and D. J. Fox, Gaussian, Inc., Wallingford CT, 2013.
 
 ******************************************
 Gaussian 09:  ES64L-G09RevD.01 24-Apr-2013
                28-Feb-2024 
 ******************************************
 %nprocshared=16
 Will use up to   16 processors via shared memory.
 %mem=32GB
 %chk=tbu2cy-v4.chk
 ----------------------------------------------------------------------
 #p opt freq=noraman geom=connectivity pbe1pbe genecp temperature=298 i
 ntegral(grid=ultrafine) empiricaldispersion=gd3bj
 ----------------------------------------------------------------------
 1/14=-1,18=20,19=15,26=4,38=1,57=2,112=298000/1,3;
 2/9=110,12=2,17=6,18=5,40=1/2;
 3/5=7,11=2,16=1,17=8,25=1,30=1,71=1,74=-13,75=-5,124=41/1,2,3;
 4//1;
 5/5=2,38=5/2;
 6/7=2,8=2,9=2,10=2,28=1/1;
 7//1,2,3,16;
 1/14=-1,18=20,19=15,26=4/3(2);
 2/9=110/2;
 99//99;
 2/9=110/2;
 3/5=7,6=1,11=2,16=1,17=8,25=1,30=1,71=1,74=-13,75=-5,82=7,124=41/1,2,3;
 4/5=5,16=3,69=1/1;
 5/5=2,38=5/2;
 7//1,2,3,16;
 1/14=-1,18=20,19=15,26=4/3(-5);
 2/9=110/2;
 6/7=2,8=2,9=2,10=2,19=2,28=1/1;
 99/9=1/99;
 Leave Link    1 at Wed Feb 28 14:29:02 2024, MaxMem=  4294967296 cpu:         1.1
 (Enter /cluster/apps/gaussian/g09/l101.exe)
 -----
 title
 -----
 Symbolic Z-matrix:
 Charge =  0 Multiplicity = 1
 Pd                   -0.15742  -0.40091  -0.64894 
 C                    -0.81181   1.47023  -0.7755 
 C                     0.00981   2.48678  -1.26783 
 H                     1.04514   2.27739  -1.52703 
 C                    -0.44379   3.78791  -1.42966 
 H                     0.2139    4.57262  -1.80837 
 C                    -1.76673   4.10819  -1.10985 
 C                    -2.60934   3.10528  -0.63505 
 H                    -3.64627   3.32986  -0.39504 
 C                    -2.14757   1.78565  -0.45967 
 C                    -3.10278   0.76938   0.03011 
 C                    -4.07901   1.04726   0.98977 
 C                    -5.00468   0.08865   1.39245 
 C                    -4.95328  -1.19011   0.84649 
 C                    -3.96287  -1.50579  -0.07898 
 C                    -3.04198  -0.54026  -0.49783 
 N                    -1.99098  -0.90122  -1.33752 
 S                    -2.26584  -1.25267  -2.89979 
 O                    -1.22882  -2.17747  -3.34862 
 O                    -3.68114  -1.54427  -3.10773 
 C                    -2.02745   0.28183  -3.84658 
 Cl                   -0.33965   0.68135  -4.15008 
 H                    -2.51291   1.09768  -3.29437 
 H                    -2.53414   0.09954  -4.80328 
 F                    -3.87888  -2.75112  -0.51103 
 F                    -5.81487  -2.11048   1.24666 
 F                    -5.91886   0.38376   2.30505 
 F                    -4.15388   2.24281   1.57665 
 O                    -2.14368   5.39195  -1.29434 
 C                    -3.4575    5.75541  -0.979 
 H                    -4.1954    5.21499  -1.59864 
 H                    -3.54545   6.83029  -1.18269 
 H                    -3.69172   5.57242   0.0849 
 P                     1.86058  -0.18393   0.49539 
 C                     2.88563   1.26908  -0.11835 
 C                     1.54915   0.1902    2.33412 
 C                     2.85593  -1.79049   0.24904 
 C                     4.10821   1.76324   0.65997 
 C                     3.30366   1.11304  -1.581 
 H                     2.13424   2.07121  -0.08814 
 C                     2.69604  -0.13643   3.29178 
 C                     1.18687   1.67581   2.44672 
 C                     0.30835  -0.60808   2.74157 
 C                     2.30772  -2.91807   1.12634 
 C                     2.62275  -2.19947  -1.21136 
 C                     4.35196  -1.63261   0.51692 
 C                     4.5182    3.13307   0.11238 
 H                     3.90333   1.86766   1.72256 
 H                     4.94324   1.07311   0.54507 
 C                     3.68448   2.47422  -2.15735 
 H                     2.49089   0.68039  -2.15662 
 H                     4.17033   0.45505  -1.65974 
 H                     3.63545   0.31449   2.98759 
 H                     2.44479   0.25225   4.27835 
 H                     2.84446  -1.20727   3.39153 
 H                     0.68362   1.85209   3.3961 
 H                     2.05736   2.3234    2.41165 
 H                     0.50513   1.9636    1.64819 
 H                    -0.54568  -0.32446   2.12187 
 H                     0.05724  -0.39613   3.78014 
 H                     0.46307  -1.67922   2.64481 
 H                     2.50798  -2.75627   2.18089 
 H                     1.23828  -3.0306    0.9704 
 H                     2.78679  -3.85411   0.84099 
 H                     3.0655   -3.17808  -1.39157 
 H                     1.54845  -2.27307  -1.4184 
 H                     3.06806  -1.49854  -1.91062 
 H                     4.82995  -2.6084    0.43575 
 H                     4.82154  -0.97786  -0.21023 
 H                     4.54268  -1.24986   1.51516 
 C                     4.8559    3.05773  -1.37324 
 H                     5.38212   3.50279   0.66901 
 H                     3.69797   3.83932   0.26033 
 H                     3.95507   2.36902  -3.20954 
 H                     2.82667   3.1478   -2.10013 
 H                     5.09951   4.05279  -1.74859 
 H                     5.7354    2.42464  -1.51317 
 
 NAtoms=     77 NQM=       77 NQMF=       0 NMMI=      0 NMMIF=      0
                NMic=       0 NMicF=      0.
                    Isotopes and Nuclear Properties:
 (Nuclear quadrupole moments (NQMom) in fm**2, nuclear magnetic moments (NMagM)
  in nuclear magnetons)

  Atom         1           2           3           4           5           6           7           8           9          10
 IAtWgt=         106          12          12           1          12           1          12          12           1          12
 AtmWgt= 105.9032000  12.0000000  12.0000000   1.0078250  12.0000000   1.0078250  12.0000000  12.0000000   1.0078250  12.0000000
 NucSpn=           0           0           0           1           0           1           0           0           1           0
 AtZEff=   0.0000000   0.0000000   0.0000000   0.0000000   0.0000000   0.0000000   0.0000000   0.0000000   0.0000000   0.0000000
 NQMom=    0.0000000   0.0000000   0.0000000   0.0000000   0.0000000   0.0000000   0.0000000   0.0000000   0.0000000   0.0000000
 NMagM=    0.0000000   0.0000000   0.0000000   2.7928460   0.0000000   2.7928460   0.0000000   0.0000000   2.7928460   0.0000000
 AtZNuc=  46.0000000   6.0000000   6.0000000   1.0000000   6.0000000   1.0000000   6.0000000   6.0000000   1.0000000   6.0000000

  Atom        11          12          13          14          15          16          17          18          19          20
 IAtWgt=          12          12          12          12          12          12          14          32          16          16
 AtmWgt=  12.0000000  12.0000000  12.0000000  12.0000000  12.0000000  12.0000000  14.0030740  31.9720718  15.9949146  15.9949146
 NucSpn=           0           0           0           0           0           0           2           0           0           0
 AtZEff=   0.0000000   0.0000000   0.0000000   0.0000000   0.0000000   0.0000000   0.0000000   0.0000000   0.0000000   0.0000000
 NQMom=    0.0000000   0.0000000   0.0000000   0.0000000   0.0000000   0.0000000   2.0440000   0.0000000   0.0000000   0.0000000
 NMagM=    0.0000000   0.0000000   0.0000000   0.0000000   0.0000000   0.0000000   0.4037610   0.0000000   0.0000000   0.0000000
 AtZNuc=   6.0000000   6.0000000   6.0000000   6.0000000   6.0000000   6.0000000   7.0000000  16.0000000   8.0000000   8.0000000

  Atom        21          22          23          24          25          26          27          28          29          30
 IAtWgt=          12          35           1           1          19          19          19          19          16          12
 AtmWgt=  12.0000000  34.9688527   1.0078250   1.0078250  18.9984033  18.9984033  18.9984033  18.9984033  15.9949146  12.0000000
 NucSpn=           0           3           1           1           1           1           1           1           0           0
 AtZEff=   0.0000000   0.0000000   0.0000000   0.0000000   0.0000000   0.0000000   0.0000000   0.0000000   0.0000000   0.0000000
 NQMom=    0.0000000  -8.1650000   0.0000000   0.0000000   0.0000000   0.0000000   0.0000000   0.0000000   0.0000000   0.0000000
 NMagM=    0.0000000   0.8218740   2.7928460   2.7928460   2.6288670   2.6288670   2.6288670   2.6288670   0.0000000   0.0000000
 AtZNuc=   6.0000000  17.0000000   1.0000000   1.0000000   9.0000000   9.0000000   9.0000000   9.0000000   8.0000000   6.0000000

  Atom        31          32          33          34          35          36          37          38          39          40
 IAtWgt=           1           1           1          31          12          12          12          12          12           1
 AtmWgt=   1.0078250   1.0078250   1.0078250  30.9737634  12.0000000  12.0000000  12.0000000  12.0000000  12.0000000   1.0078250
 NucSpn=           1           1           1           1           0           0           0           0           0           1
 AtZEff=   0.0000000   0.0000000   0.0000000   0.0000000   0.0000000   0.0000000   0.0000000   0.0000000   0.0000000   0.0000000
 NQMom=    0.0000000   0.0000000   0.0000000   0.0000000   0.0000000   0.0000000   0.0000000   0.0000000   0.0000000   0.0000000
 NMagM=    2.7928460   2.7928460   2.7928460   1.1316000   0.0000000   0.0000000   0.0000000   0.0000000   0.0000000   2.7928460
 AtZNuc=   1.0000000   1.0000000   1.0000000  15.0000000   6.0000000   6.0000000   6.0000000   6.0000000   6.0000000   1.0000000

  Atom        41          42          43          44          45          46          47          48          49          50
 IAtWgt=          12          12          12          12          12          12          12           1           1          12
 AtmWgt=  12.0000000  12.0000000  12.0000000  12.0000000  12.0000000  12.0000000  12.0000000   1.0078250   1.0078250  12.0000000
 NucSpn=           0           0           0           0           0           0           0           1           1           0
 AtZEff=   0.0000000   0.0000000   0.0000000   0.0000000   0.0000000   0.0000000   0.0000000   0.0000000   0.0000000   0.0000000
 NQMom=    0.0000000   0.0000000   0.0000000   0.0000000   0.0000000   0.0000000   0.0000000   0.0000000   0.0000000   0.0000000
 NMagM=    0.0000000   0.0000000   0.0000000   0.0000000   0.0000000   0.0000000   0.0000000   2.7928460   2.7928460   0.0000000
 AtZNuc=   6.0000000   6.0000000   6.0000000   6.0000000   6.0000000   6.0000000   6.0000000   1.0000000   1.0000000   6.0000000

  Atom        51          52          53          54          55          56          57          58          59          60
 IAtWgt=           1           1           1           1           1           1           1           1           1           1
 AtmWgt=   1.0078250   1.0078250   1.0078250   1.0078250   1.0078250   1.0078250   1.0078250   1.0078250   1.0078250   1.0078250
 NucSpn=           1           1           1           1           1           1           1           1           1           1
 AtZEff=   0.0000000   0.0000000   0.0000000   0.0000000   0.0000000   0.0000000   0.0000000   0.0000000   0.0000000   0.0000000
 NQMom=    0.0000000   0.0000000   0.0000000   0.0000000   0.0000000   0.0000000   0.0000000   0.0000000   0.0000000   0.0000000
 NMagM=    2.7928460   2.7928460   2.7928460   2.7928460   2.7928460   2.7928460   2.7928460   2.7928460   2.7928460   2.7928460
 AtZNuc=   1.0000000   1.0000000   1.0000000   1.0000000   1.0000000   1.0000000   1.0000000   1.0000000   1.0000000   1.0000000

  Atom        61          62          63          64          65          66          67          68          69          70
 IAtWgt=           1           1           1           1           1           1           1           1           1           1
 AtmWgt=   1.0078250   1.0078250   1.0078250   1.0078250   1.0078250   1.0078250   1.0078250   1.0078250   1.0078250   1.0078250
 NucSpn=           1           1           1           1           1           1           1           1           1           1
 AtZEff=   0.0000000   0.0000000   0.0000000   0.0000000   0.0000000   0.0000000   0.0000000   0.0000000   0.0000000   0.0000000
 NQMom=    0.0000000   0.0000000   0.0000000   0.0000000   0.0000000   0.0000000   0.0000000   0.0000000   0.0000000   0.0000000
 NMagM=    2.7928460   2.7928460   2.7928460   2.7928460   2.7928460   2.7928460   2.7928460   2.7928460   2.7928460   2.7928460
 AtZNuc=   1.0000000   1.0000000   1.0000000   1.0000000   1.0000000   1.0000000   1.0000000   1.0000000   1.0000000   1.0000000

  Atom        71          72          73          74          75          76          77
 IAtWgt=          12           1           1           1           1           1           1
 AtmWgt=  12.0000000   1.0078250   1.0078250   1.0078250   1.0078250   1.0078250   1.0078250
 NucSpn=           0           1           1           1           1           1           1
 AtZEff=   0.0000000   0.0000000   0.0000000   0.0000000   0.0000000   0.0000000   0.0000000
 NQMom=    0.0000000   0.0000000   0.0000000   0.0000000   0.0000000   0.0000000   0.0000000
 NMagM=    0.0000000   2.7928460   2.7928460   2.7928460   2.7928460   2.7928460   2.7928460
 AtZNuc=   6.0000000   1.0000000   1.0000000   1.0000000   1.0000000   1.0000000   1.0000000
 Leave Link  101 at Wed Feb 28 14:29:02 2024, MaxMem=  4294967296 cpu:         3.4
 (Enter /cluster/apps/gaussian/g09/l103.exe)

 GradGradGradGradGradGradGradGradGradGradGradGradGradGradGradGradGradGrad
 Berny optimization.
 Initialization pass.
                           ----------------------------
                           !    Initial Parameters    !
                           ! (Angstroms and Degrees)  !
 --------------------------                            --------------------------
 ! Name  Definition              Value          Derivative Info.                !
 --------------------------------------------------------------------------------
 ! R1    R(1,2)                  1.9863         estimate D2E/DX2                !
 ! R2    R(1,17)                 2.0215         estimate D2E/DX2                !
 ! R3    R(1,34)                 2.33           estimate D2E/DX2                !
 ! R4    R(2,3)                  1.3967         estimate D2E/DX2                !
 ! R5    R(2,10)                 1.4084         estimate D2E/DX2                !
 ! R6    R(3,4)                  1.0876         estimate D2E/DX2                !
 ! R7    R(3,5)                  1.3874         estimate D2E/DX2                !
 ! R8    R(5,6)                  1.0917         estimate D2E/DX2                !
 ! R9    R(5,7)                  1.3982         estimate D2E/DX2                !
 ! R10   R(7,8)                  1.3933         estimate D2E/DX2                !
 ! R11   R(7,29)                 1.3506         estimate D2E/DX2                !
 ! R12   R(8,9)                  1.0878         estimate D2E/DX2                !
 ! R13   R(8,10)                 1.409          estimate D2E/DX2                !
 ! R14   R(10,11)                1.4782         estimate D2E/DX2                !
 ! R15   R(11,12)                1.3969         estimate D2E/DX2                !
 ! R16   R(11,16)                1.4134         estimate D2E/DX2                !
 ! R17   R(12,13)                1.3921         estimate D2E/DX2                !
 ! R18   R(12,28)                1.3339         estimate D2E/DX2                !
 ! R19   R(13,14)                1.3914         estimate D2E/DX2                !
 ! R20   R(13,27)                1.325          estimate D2E/DX2                !
 ! R21   R(14,15)                1.3918         estimate D2E/DX2                !
 ! R22   R(14,26)                1.3227         estimate D2E/DX2                !
 ! R23   R(15,16)                1.3985         estimate D2E/DX2                !
 ! R24   R(15,25)                1.3208         estimate D2E/DX2                !
 ! R25   R(16,17)                1.3928         estimate D2E/DX2                !
 ! R26   R(17,18)                1.6247         estimate D2E/DX2                !
 ! R27   R(18,19)                1.4602         estimate D2E/DX2                !
 ! R28   R(18,20)                1.4599         estimate D2E/DX2                !
 ! R29   R(18,21)                1.8188         estimate D2E/DX2                !
 ! R30   R(21,22)                1.7608         estimate D2E/DX2                !
 ! R31   R(21,23)                1.0983         estimate D2E/DX2                !
 ! R32   R(21,24)                1.0978         estimate D2E/DX2                !
 ! R33   R(29,30)                1.3992         estimate D2E/DX2                !
 ! R34   R(30,31)                1.1048         estimate D2E/DX2                !
 ! R35   R(30,32)                1.0975         estimate D2E/DX2                !
 ! R36   R(30,33)                1.1046         estimate D2E/DX2                !
 ! R37   R(34,35)                1.8811         estimate D2E/DX2                !
 ! R38   R(34,36)                1.9021         estimate D2E/DX2                !
 ! R39   R(34,37)                1.9059         estimate D2E/DX2                !
 ! R40   R(35,38)                1.5312         estimate D2E/DX2                !
 ! R41   R(35,39)                1.5292         estimate D2E/DX2                !
 ! R42   R(35,40)                1.0995         estimate D2E/DX2                !
 ! R43   R(36,41)                1.5294         estimate D2E/DX2                !
 ! R44   R(36,42)                1.5333         estimate D2E/DX2                !
 ! R45   R(36,43)                1.5306         estimate D2E/DX2                !
 ! R46   R(37,44)                1.5302         estimate D2E/DX2                !
 ! R47   R(37,45)                1.5344         estimate D2E/DX2                !
 ! R48   R(37,46)                1.528          estimate D2E/DX2                !
 ! R49   R(38,47)                1.5311         estimate D2E/DX2                !
 ! R50   R(38,48)                1.0872         estimate D2E/DX2                !
 ! R51   R(38,49)                1.0894         estimate D2E/DX2                !
 ! R52   R(39,50)                1.5264         estimate D2E/DX2                !
 ! R53   R(39,51)                1.0859         estimate D2E/DX2                !
 ! R54   R(39,52)                1.091          estimate D2E/DX2                !
 ! R55   R(41,53)                1.0855         estimate D2E/DX2                !
 ! R56   R(41,54)                1.0897         estimate D2E/DX2                !
 ! R57   R(41,55)                1.0857         estimate D2E/DX2                !
 ! R58   R(42,56)                1.0889         estimate D2E/DX2                !
 ! R59   R(42,57)                1.0855         estimate D2E/DX2                !
 ! R60   R(42,58)                1.0887         estimate D2E/DX2                !
 ! R61   R(43,59)                1.0926         estimate D2E/DX2                !
 ! R62   R(43,60)                1.0893         estimate D2E/DX2                !
 ! R63   R(43,61)                1.0866         estimate D2E/DX2                !
 ! R64   R(44,62)                1.0855         estimate D2E/DX2                !
 ! R65   R(44,63)                1.0866         estimate D2E/DX2                !
 ! R66   R(44,64)                1.0895         estimate D2E/DX2                !
 ! R67   R(45,65)                1.0891         estimate D2E/DX2                !
 ! R68   R(45,66)                1.0965         estimate D2E/DX2                !
 ! R69   R(45,67)                1.0856         estimate D2E/DX2                !
 ! R70   R(46,68)                1.0896         estimate D2E/DX2                !
 ! R71   R(46,69)                1.0853         estimate D2E/DX2                !
 ! R72   R(46,70)                1.086          estimate D2E/DX2                !
 ! R73   R(47,71)                1.5254         estimate D2E/DX2                !
 ! R74   R(47,72)                1.0922         estimate D2E/DX2                !
 ! R75   R(47,73)                1.0924         estimate D2E/DX2                !
 ! R76   R(50,71)                1.5256         estimate D2E/DX2                !
 ! R77   R(50,74)                1.0915         estimate D2E/DX2                !
 ! R78   R(50,75)                1.0922         estimate D2E/DX2                !
 ! R79   R(71,76)                1.091          estimate D2E/DX2                !
 ! R80   R(71,77)                1.0927         estimate D2E/DX2                !
 ! A1    A(2,1,17)              84.9871         estimate D2E/DX2                !
 ! A2    A(2,1,34)             103.2324         estimate D2E/DX2                !
 ! A3    A(1,2,3)              120.9493         estimate D2E/DX2                !
 ! A4    A(1,2,10)             120.6073         estimate D2E/DX2                !
 ! A5    A(3,2,10)             118.2922         estimate D2E/DX2                !
 ! A6    A(2,3,4)              120.2547         estimate D2E/DX2                !
 ! A7    A(2,3,5)              122.0968         estimate D2E/DX2                !
 ! A8    A(4,3,5)              117.6438         estimate D2E/DX2                !
 ! A9    A(3,5,6)              121.1723         estimate D2E/DX2                !
 ! A10   A(3,5,7)              119.8332         estimate D2E/DX2                !
 ! A11   A(6,5,7)              118.994          estimate D2E/DX2                !
 ! A12   A(5,7,8)              119.0297         estimate D2E/DX2                !
 ! A13   A(5,7,29)             116.7784         estimate D2E/DX2                !
 ! A14   A(8,7,29)             124.1909         estimate D2E/DX2                !
 ! A15   A(7,8,9)              120.203          estimate D2E/DX2                !
 ! A16   A(7,8,10)             121.2225         estimate D2E/DX2                !
 ! A17   A(9,8,10)             118.5741         estimate D2E/DX2                !
 ! A18   A(2,10,8)             119.5154         estimate D2E/DX2                !
 ! A19   A(2,10,11)            122.2224         estimate D2E/DX2                !
 ! A20   A(8,10,11)            118.2517         estimate D2E/DX2                !
 ! A21   A(10,11,12)           122.8518         estimate D2E/DX2                !
 ! A22   A(10,11,16)           119.0448         estimate D2E/DX2                !
 ! A23   A(12,11,16)           118.1008         estimate D2E/DX2                !
 ! A24   A(11,12,13)           121.7659         estimate D2E/DX2                !
 ! A25   A(11,12,28)           121.3179         estimate D2E/DX2                !
 ! A26   A(13,12,28)           116.9098         estimate D2E/DX2                !
 ! A27   A(12,13,14)           119.6567         estimate D2E/DX2                !
 ! A28   A(12,13,27)           120.3065         estimate D2E/DX2                !
 ! A29   A(14,13,27)           120.0295         estimate D2E/DX2                !
 ! A30   A(13,14,15)           119.7137         estimate D2E/DX2                !
 ! A31   A(13,14,26)           119.7834         estimate D2E/DX2                !
 ! A32   A(15,14,26)           120.4565         estimate D2E/DX2                !
 ! A33   A(14,15,16)           120.7407         estimate D2E/DX2                !
 ! A34   A(14,15,25)           118.4649         estimate D2E/DX2                !
 ! A35   A(16,15,25)           120.7377         estimate D2E/DX2                !
 ! A36   A(11,16,15)           119.9706         estimate D2E/DX2                !
 ! A37   A(11,16,17)           119.8536         estimate D2E/DX2                !
 ! A38   A(15,16,17)           119.9025         estimate D2E/DX2                !
 ! A39   A(1,17,16)            114.5155         estimate D2E/DX2                !
 ! A40   A(1,17,18)            122.311          estimate D2E/DX2                !
 ! A41   A(16,17,18)           120.537          estimate D2E/DX2                !
 ! A42   A(17,18,19)           108.2051         estimate D2E/DX2                !
 ! A43   A(17,18,20)           110.131          estimate D2E/DX2                !
 ! A44   A(17,18,21)           107.2101         estimate D2E/DX2                !
 ! A45   A(19,18,20)           121.2126         estimate D2E/DX2                !
 ! A46   A(19,18,21)           106.3353         estimate D2E/DX2                !
 ! A47   A(20,18,21)           102.7933         estimate D2E/DX2                !
 ! A48   A(18,21,22)           114.0039         estimate D2E/DX2                !
 ! A49   A(18,21,23)           107.8825         estimate D2E/DX2                !
 ! A50   A(18,21,24)           104.6587         estimate D2E/DX2                !
 ! A51   A(22,21,23)           109.9871         estimate D2E/DX2                !
 ! A52   A(22,21,24)           109.2603         estimate D2E/DX2                !
 ! A53   A(23,21,24)           110.9469         estimate D2E/DX2                !
 ! A54   A(7,29,30)            118.5673         estimate D2E/DX2                !
 ! A55   A(29,30,31)           111.944          estimate D2E/DX2                !
 ! A56   A(29,30,32)           106.7274         estimate D2E/DX2                !
 ! A57   A(29,30,33)           111.9086         estimate D2E/DX2                !
 ! A58   A(31,30,32)           108.7516         estimate D2E/DX2                !
 ! A59   A(31,30,33)           108.5145         estimate D2E/DX2                !
 ! A60   A(32,30,33)           108.9042         estimate D2E/DX2                !
 ! A61   A(1,34,35)            112.5594         estimate D2E/DX2                !
 ! A62   A(1,34,36)            110.5657         estimate D2E/DX2                !
 ! A63   A(1,34,37)            108.0793         estimate D2E/DX2                !
 ! A64   A(35,34,36)           104.6365         estimate D2E/DX2                !
 ! A65   A(35,34,37)           108.9263         estimate D2E/DX2                !
 ! A66   A(36,34,37)           112.1023         estimate D2E/DX2                !
 ! A67   A(34,35,38)           121.2325         estimate D2E/DX2                !
 ! A68   A(34,35,39)           112.4701         estimate D2E/DX2                !
 ! A69   A(34,35,40)           100.4953         estimate D2E/DX2                !
 ! A70   A(38,35,39)           107.5086         estimate D2E/DX2                !
 ! A71   A(38,35,40)           107.2316         estimate D2E/DX2                !
 ! A72   A(39,35,40)           106.7101         estimate D2E/DX2                !
 ! A73   A(34,36,41)           116.1366         estimate D2E/DX2                !
 ! A74   A(34,36,42)           107.4732         estimate D2E/DX2                !
 ! A75   A(34,36,43)           106.7071         estimate D2E/DX2                !
 ! A76   A(41,36,42)           109.762          estimate D2E/DX2                !
 ! A77   A(41,36,43)           109.2584         estimate D2E/DX2                !
 ! A78   A(42,36,43)           107.1116         estimate D2E/DX2                !
 ! A79   A(34,37,44)           111.0963         estimate D2E/DX2                !
 ! A80   A(34,37,45)           105.5649         estimate D2E/DX2                !
 ! A81   A(34,37,46)           113.6758         estimate D2E/DX2                !
 ! A82   A(44,37,45)           107.1467         estimate D2E/DX2                !
 ! A83   A(44,37,46)           109.0494         estimate D2E/DX2                !
 ! A84   A(45,37,46)           110.0709         estimate D2E/DX2                !
 ! A85   A(35,38,47)           108.7074         estimate D2E/DX2                !
 ! A86   A(35,38,48)           112.1684         estimate D2E/DX2                !
 ! A87   A(35,38,49)           110.7294         estimate D2E/DX2                !
 ! A88   A(47,38,48)           108.305          estimate D2E/DX2                !
 ! A89   A(47,38,49)           108.8925         estimate D2E/DX2                !
 ! A90   A(48,38,49)           107.9614         estimate D2E/DX2                !
 ! A91   A(35,39,50)           109.7764         estimate D2E/DX2                !
 ! A92   A(35,39,51)           110.0645         estimate D2E/DX2                !
 ! A93   A(35,39,52)           110.3482         estimate D2E/DX2                !
 ! A94   A(50,39,51)           109.9914         estimate D2E/DX2                !
 ! A95   A(50,39,52)           108.2021         estimate D2E/DX2                !
 ! A96   A(51,39,52)           108.4243         estimate D2E/DX2                !
 ! A97   A(36,41,53)           112.6298         estimate D2E/DX2                !
 ! A98   A(36,41,54)           108.5305         estimate D2E/DX2                !
 ! A99   A(36,41,55)           111.758          estimate D2E/DX2                !
 ! A100  A(53,41,54)           107.762          estimate D2E/DX2                !
 ! A101  A(53,41,55)           108.4919         estimate D2E/DX2                !
 ! A102  A(54,41,55)           107.4656         estimate D2E/DX2                !
 ! A103  A(36,42,56)           109.2742         estimate D2E/DX2                !
 ! A104  A(36,42,57)           112.7168         estimate D2E/DX2                !
 ! A105  A(36,42,58)           110.5005         estimate D2E/DX2                !
 ! A106  A(56,42,57)           107.5903         estimate D2E/DX2                !
 ! A107  A(56,42,58)           107.8973         estimate D2E/DX2                !
 ! A108  A(57,42,58)           108.7085         estimate D2E/DX2                !
 ! A109  A(36,43,59)           110.3203         estimate D2E/DX2                !
 ! A110  A(36,43,60)           109.8275         estimate D2E/DX2                !
 ! A111  A(36,43,61)           112.0234         estimate D2E/DX2                !
 ! A112  A(59,43,60)           108.0629         estimate D2E/DX2                !
 ! A113  A(59,43,61)           108.4624         estimate D2E/DX2                !
 ! A114  A(60,43,61)           108.0312         estimate D2E/DX2                !
 ! A115  A(37,44,62)           112.3975         estimate D2E/DX2                !
 ! A116  A(37,44,63)           110.2814         estimate D2E/DX2                !
 ! A117  A(37,44,64)           108.9886         estimate D2E/DX2                !
 ! A118  A(62,44,63)           109.6599         estimate D2E/DX2                !
 ! A119  A(62,44,64)           107.5397         estimate D2E/DX2                !
 ! A120  A(63,44,64)           107.8293         estimate D2E/DX2                !
 ! A121  A(37,45,65)           109.5844         estimate D2E/DX2                !
 ! A122  A(37,45,66)           110.2723         estimate D2E/DX2                !
 ! A123  A(37,45,67)           112.2484         estimate D2E/DX2                !
 ! A124  A(65,45,66)           107.8614         estimate D2E/DX2                !
 ! A125  A(65,45,67)           107.8672         estimate D2E/DX2                !
 ! A126  A(66,45,67)           108.8805         estimate D2E/DX2                !
 ! A127  A(37,46,68)           108.8999         estimate D2E/DX2                !
 ! A128  A(37,46,69)           111.6223         estimate D2E/DX2                !
 ! A129  A(37,46,70)           111.6852         estimate D2E/DX2                !
 ! A130  A(68,46,69)           107.4903         estimate D2E/DX2                !
 ! A131  A(68,46,70)           107.8828         estimate D2E/DX2                !
 ! A132  A(69,46,70)           109.1014         estimate D2E/DX2                !
 ! A133  A(38,47,71)           111.3093         estimate D2E/DX2                !
 ! A134  A(38,47,72)           109.4139         estimate D2E/DX2                !
 ! A135  A(38,47,73)           109.2021         estimate D2E/DX2                !
 ! A136  A(71,47,72)           109.7524         estimate D2E/DX2                !
 ! A137  A(71,47,73)           109.2714         estimate D2E/DX2                !
 ! A138  A(72,47,73)           107.8204         estimate D2E/DX2                !
 ! A139  A(39,50,71)           109.7894         estimate D2E/DX2                !
 ! A140  A(39,50,74)           109.8696         estimate D2E/DX2                !
 ! A141  A(39,50,75)           109.5261         estimate D2E/DX2                !
 ! A142  A(71,50,74)           109.9965         estimate D2E/DX2                !
 ! A143  A(71,50,75)           109.8922         estimate D2E/DX2                !
 ! A144  A(74,50,75)           107.7377         estimate D2E/DX2                !
 ! A145  A(47,71,50)           110.4549         estimate D2E/DX2                !
 ! A146  A(47,71,76)           109.8432         estimate D2E/DX2                !
 ! A147  A(47,71,77)           109.3628         estimate D2E/DX2                !
 ! A148  A(50,71,76)           110.0873         estimate D2E/DX2                !
 ! A149  A(50,71,77)           109.3058         estimate D2E/DX2                !
 ! A150  A(76,71,77)           107.7365         estimate D2E/DX2                !
 ! A151  L(17,1,34,2,-1)       188.2195         estimate D2E/DX2                !
 ! A152  L(17,1,34,2,-2)       170.3201         estimate D2E/DX2                !
 ! D1    D(17,1,2,3)          -138.3683         estimate D2E/DX2                !
 ! D2    D(17,1,2,10)           37.0849         estimate D2E/DX2                !
 ! D3    D(34,1,2,3)            51.3116         estimate D2E/DX2                !
 ! D4    D(34,1,2,10)         -133.2352         estimate D2E/DX2                !
 ! D5    D(2,1,17,16)          -62.5327         estimate D2E/DX2                !
 ! D6    D(2,1,17,18)           99.1219         estimate D2E/DX2                !
 ! D7    D(16,17,34,35)       -106.3856         estimate D2E/DX2                !
 ! D8    D(16,17,34,36)         11.5362         estimate D2E/DX2                !
 ! D9    D(16,17,34,37)        131.301          estimate D2E/DX2                !
 ! D10   D(18,17,34,35)         61.6059         estimate D2E/DX2                !
 ! D11   D(18,17,34,36)        179.5277         estimate D2E/DX2                !
 ! D12   D(18,17,34,37)        -60.7075         estimate D2E/DX2                !
 ! D13   D(2,1,34,35)          -43.0699         estimate D2E/DX2                !
 ! D14   D(2,1,34,36)           73.5529         estimate D2E/DX2                !
 ! D15   D(2,1,34,37)         -163.4068         estimate D2E/DX2                !
 ! D16   D(1,2,3,4)             -4.1158         estimate D2E/DX2                !
 ! D17   D(1,2,3,5)            176.6901         estimate D2E/DX2                !
 ! D18   D(10,2,3,4)          -179.6718         estimate D2E/DX2                !
 ! D19   D(10,2,3,5)             1.1341         estimate D2E/DX2                !
 ! D20   D(1,2,10,8)          -176.1613         estimate D2E/DX2                !
 ! D21   D(1,2,10,11)            2.6384         estimate D2E/DX2                !
 ! D22   D(3,2,10,8)            -0.5896         estimate D2E/DX2                !
 ! D23   D(3,2,10,11)          178.2101         estimate D2E/DX2                !
 ! D24   D(2,3,5,6)            179.5057         estimate D2E/DX2                !
 ! D25   D(2,3,5,7)             -0.7583         estimate D2E/DX2                !
 ! D26   D(4,3,5,6)              0.2915         estimate D2E/DX2                !
 ! D27   D(4,3,5,7)           -179.9725         estimate D2E/DX2                !
 ! D28   D(3,5,7,8)             -0.1739         estimate D2E/DX2                !
 ! D29   D(3,5,7,29)          -179.828          estimate D2E/DX2                !
 ! D30   D(6,5,7,8)            179.5679         estimate D2E/DX2                !
 ! D31   D(6,5,7,29)            -0.0862         estimate D2E/DX2                !
 ! D32   D(5,7,8,9)           -179.0511         estimate D2E/DX2                !
 ! D33   D(5,7,8,10)             0.7003         estimate D2E/DX2                !
 ! D34   D(29,7,8,9)             0.5755         estimate D2E/DX2                !
 ! D35   D(29,7,8,10)         -179.673          estimate D2E/DX2                !
 ! D36   D(5,7,29,30)         -179.6417         estimate D2E/DX2                !
 ! D37   D(8,7,29,30)            0.724          estimate D2E/DX2                !
 ! D38   D(7,8,10,2)            -0.313          estimate D2E/DX2                !
 ! D39   D(7,8,10,11)         -179.1602         estimate D2E/DX2                !
 ! D40   D(9,8,10,2)           179.4424         estimate D2E/DX2                !
 ! D41   D(9,8,10,11)            0.5952         estimate D2E/DX2                !
 ! D42   D(2,10,11,12)         143.6258         estimate D2E/DX2                !
 ! D43   D(2,10,11,16)         -36.9628         estimate D2E/DX2                !
 ! D44   D(8,10,11,12)         -37.56           estimate D2E/DX2                !
 ! D45   D(8,10,11,16)         141.8514         estimate D2E/DX2                !
 ! D46   D(10,11,12,13)        177.1526         estimate D2E/DX2                !
 ! D47   D(10,11,12,28)         -3.7866         estimate D2E/DX2                !
 ! D48   D(16,11,12,13)         -2.2641         estimate D2E/DX2                !
 ! D49   D(16,11,12,28)        176.7968         estimate D2E/DX2                !
 ! D50   D(10,11,16,15)       -178.0117         estimate D2E/DX2                !
 ! D51   D(10,11,16,17)          7.9983         estimate D2E/DX2                !
 ! D52   D(12,11,16,15)          1.4278         estimate D2E/DX2                !
 ! D53   D(12,11,16,17)       -172.5623         estimate D2E/DX2                !
 ! D54   D(11,12,13,14)          1.0012         estimate D2E/DX2                !
 ! D55   D(11,12,13,27)       -179.98           estimate D2E/DX2                !
 ! D56   D(28,12,13,14)       -178.099          estimate D2E/DX2                !
 ! D57   D(28,12,13,27)          0.9197         estimate D2E/DX2                !
 ! D58   D(12,13,14,15)          1.134          estimate D2E/DX2                !
 ! D59   D(12,13,14,26)        178.6683         estimate D2E/DX2                !
 ! D60   D(27,13,14,15)       -177.8875         estimate D2E/DX2                !
 ! D61   D(27,13,14,26)         -0.3532         estimate D2E/DX2                !
 ! D62   D(13,14,15,16)         -1.9481         estimate D2E/DX2                !
 ! D63   D(13,14,15,25)        175.3331         estimate D2E/DX2                !
 ! D64   D(26,14,15,16)       -179.4655         estimate D2E/DX2                !
 ! D65   D(26,14,15,25)         -2.1842         estimate D2E/DX2                !
 ! D66   D(14,15,16,11)          0.646          estimate D2E/DX2                !
 ! D67   D(14,15,16,17)        174.6331         estimate D2E/DX2                !
 ! D68   D(25,15,16,11)       -176.5732         estimate D2E/DX2                !
 ! D69   D(25,15,16,17)         -2.5862         estimate D2E/DX2                !
 ! D70   D(11,16,17,1)          48.3811         estimate D2E/DX2                !
 ! D71   D(11,16,17,18)       -113.6292         estimate D2E/DX2                !
 ! D72   D(15,16,17,1)        -125.6131         estimate D2E/DX2                !
 ! D73   D(15,16,17,18)         72.3766         estimate D2E/DX2                !
 ! D74   D(1,17,18,19)          46.7875         estimate D2E/DX2                !
 ! D75   D(1,17,18,20)        -178.6592         estimate D2E/DX2                !
 ! D76   D(1,17,18,21)         -67.532          estimate D2E/DX2                !
 ! D77   D(16,17,18,19)       -152.6322         estimate D2E/DX2                !
 ! D78   D(16,17,18,20)        -18.0789         estimate D2E/DX2                !
 ! D79   D(16,17,18,21)         93.0483         estimate D2E/DX2                !
 ! D80   D(17,18,21,22)         79.043          estimate D2E/DX2                !
 ! D81   D(17,18,21,23)        -43.426          estimate D2E/DX2                !
 ! D82   D(17,18,21,24)       -161.6348         estimate D2E/DX2                !
 ! D83   D(19,18,21,22)        -36.5264         estimate D2E/DX2                !
 ! D84   D(19,18,21,23)       -158.9954         estimate D2E/DX2                !
 ! D85   D(19,18,21,24)         82.7957         estimate D2E/DX2                !
 ! D86   D(20,18,21,22)       -164.8654         estimate D2E/DX2                !
 ! D87   D(20,18,21,23)         72.6656         estimate D2E/DX2                !
 ! D88   D(20,18,21,24)        -45.5433         estimate D2E/DX2                !
 ! D89   D(7,29,30,31)         -62.1442         estimate D2E/DX2                !
 ! D90   D(7,29,30,32)         178.9761         estimate D2E/DX2                !
 ! D91   D(7,29,30,33)          59.9307         estimate D2E/DX2                !
 ! D92   D(1,34,35,38)         167.964          estimate D2E/DX2                !
 ! D93   D(1,34,35,39)         -62.871          estimate D2E/DX2                !
 ! D94   D(1,34,35,40)          50.2746         estimate D2E/DX2                !
 ! D95   D(36,34,35,38)         47.8554         estimate D2E/DX2                !
 ! D96   D(36,34,35,39)        177.0204         estimate D2E/DX2                !
 ! D97   D(36,34,35,40)        -69.834          estimate D2E/DX2                !
 ! D98   D(37,34,35,38)        -72.1881         estimate D2E/DX2                !
 ! D99   D(37,34,35,39)         56.9769         estimate D2E/DX2                !
 ! D100  D(37,34,35,40)        170.1225         estimate D2E/DX2                !
 ! D101  D(1,34,36,41)         158.5584         estimate D2E/DX2                !
 ! D102  D(1,34,36,42)         -78.1223         estimate D2E/DX2                !
 ! D103  D(1,34,36,43)          36.4943         estimate D2E/DX2                !
 ! D104  D(35,34,36,41)        -80.0097         estimate D2E/DX2                !
 ! D105  D(35,34,36,42)         43.3096         estimate D2E/DX2                !
 ! D106  D(35,34,36,43)        157.9262         estimate D2E/DX2                !
 ! D107  D(37,34,36,41)         37.8869         estimate D2E/DX2                !
 ! D108  D(37,34,36,42)        161.2062         estimate D2E/DX2                !
 ! D109  D(37,34,36,43)        -84.1772         estimate D2E/DX2                !
 ! D110  D(1,34,37,44)         -76.3682         estimate D2E/DX2                !
 ! D111  D(1,34,37,45)          39.4482         estimate D2E/DX2                !
 ! D112  D(1,34,37,46)         160.1867         estimate D2E/DX2                !
 ! D113  D(35,34,37,44)        161.0456         estimate D2E/DX2                !
 ! D114  D(35,34,37,45)        -83.138          estimate D2E/DX2                !
 ! D115  D(35,34,37,46)         37.6005         estimate D2E/DX2                !
 ! D116  D(36,34,37,44)         45.7325         estimate D2E/DX2                !
 ! D117  D(36,34,37,45)        161.5489         estimate D2E/DX2                !
 ! D118  D(36,34,37,46)        -77.7126         estimate D2E/DX2                !
 ! D119  D(34,35,38,47)       -166.4423         estimate D2E/DX2                !
 ! D120  D(34,35,38,48)        -46.7044         estimate D2E/DX2                !
 ! D121  D(34,35,38,49)         73.9756         estimate D2E/DX2                !
 ! D122  D(39,35,38,47)         62.2583         estimate D2E/DX2                !
 ! D123  D(39,35,38,48)       -178.0038         estimate D2E/DX2                !
 ! D124  D(39,35,38,49)        -57.3238         estimate D2E/DX2                !
 ! D125  D(40,35,38,47)        -52.1672         estimate D2E/DX2                !
 ! D126  D(40,35,38,48)         67.5707         estimate D2E/DX2                !
 ! D127  D(40,35,38,49)       -171.7493         estimate D2E/DX2                !
 ! D128  D(34,35,39,50)        160.2855         estimate D2E/DX2                !
 ! D129  D(34,35,39,51)         39.08           estimate D2E/DX2                !
 ! D130  D(34,35,39,52)        -80.5453         estimate D2E/DX2                !
 ! D131  D(38,35,39,50)        -63.755          estimate D2E/DX2                !
 ! D132  D(38,35,39,51)        175.0395         estimate D2E/DX2                !
 ! D133  D(38,35,39,52)         55.4142         estimate D2E/DX2                !
 ! D134  D(40,35,39,50)         51.0181         estimate D2E/DX2                !
 ! D135  D(40,35,39,51)        -70.1874         estimate D2E/DX2                !
 ! D136  D(40,35,39,52)        170.1873         estimate D2E/DX2                !
 ! D137  D(34,36,41,53)         52.8529         estimate D2E/DX2                !
 ! D138  D(34,36,41,54)        172.0826         estimate D2E/DX2                !
 ! D139  D(34,36,41,55)        -69.5837         estimate D2E/DX2                !
 ! D140  D(42,36,41,53)        -69.2661         estimate D2E/DX2                !
 ! D141  D(42,36,41,54)         49.9636         estimate D2E/DX2                !
 ! D142  D(42,36,41,55)        168.2973         estimate D2E/DX2                !
 ! D143  D(43,36,41,53)        173.5595         estimate D2E/DX2                !
 ! D144  D(43,36,41,54)        -67.2109         estimate D2E/DX2                !
 ! D145  D(43,36,41,55)         51.1228         estimate D2E/DX2                !
 ! D146  D(34,36,42,56)        160.9837         estimate D2E/DX2                !
 ! D147  D(34,36,42,57)        -79.4469         estimate D2E/DX2                !
 ! D148  D(34,36,42,58)         42.4081         estimate D2E/DX2                !
 ! D149  D(41,36,42,56)        -71.8726         estimate D2E/DX2                !
 ! D150  D(41,36,42,57)         47.6968         estimate D2E/DX2                !
 ! D151  D(41,36,42,58)        169.5518         estimate D2E/DX2                !
 ! D152  D(43,36,42,56)         46.6372         estimate D2E/DX2                !
 ! D153  D(43,36,42,57)        166.2065         estimate D2E/DX2                !
 ! D154  D(43,36,42,58)        -71.9384         estimate D2E/DX2                !
 ! D155  D(34,36,43,59)        -58.5167         estimate D2E/DX2                !
 ! D156  D(34,36,43,60)       -177.529          estimate D2E/DX2                !
 ! D157  D(34,36,43,61)         62.4187         estimate D2E/DX2                !
 ! D158  D(41,36,43,59)        175.1802         estimate D2E/DX2                !
 ! D159  D(41,36,43,60)         56.1679         estimate D2E/DX2                !
 ! D160  D(41,36,43,61)        -63.8844         estimate D2E/DX2                !
 ! D161  D(42,36,43,59)         56.3442         estimate D2E/DX2                !
 ! D162  D(42,36,43,60)        -62.6681         estimate D2E/DX2                !
 ! D163  D(42,36,43,61)        177.2796         estimate D2E/DX2                !
 ! D164  D(34,37,44,62)        -70.213          estimate D2E/DX2                !
 ! D165  D(34,37,44,63)         52.4865         estimate D2E/DX2                !
 ! D166  D(34,37,44,64)        170.6744         estimate D2E/DX2                !
 ! D167  D(45,37,44,62)        174.9515         estimate D2E/DX2                !
 ! D168  D(45,37,44,63)        -62.349          estimate D2E/DX2                !
 ! D169  D(45,37,44,64)         55.839          estimate D2E/DX2                !
 ! D170  D(46,37,44,62)         55.8415         estimate D2E/DX2                !
 ! D171  D(46,37,44,63)        178.5411         estimate D2E/DX2                !
 ! D172  D(46,37,44,64)        -63.271          estimate D2E/DX2                !
 ! D173  D(34,37,45,65)       -173.1719         estimate D2E/DX2                !
 ! D174  D(34,37,45,66)        -54.5872         estimate D2E/DX2                !
 ! D175  D(34,37,45,67)         67.0009         estimate D2E/DX2                !
 ! D176  D(44,37,45,65)        -54.6849         estimate D2E/DX2                !
 ! D177  D(44,37,45,66)         63.8998         estimate D2E/DX2                !
 ! D178  D(44,37,45,67)       -174.5121         estimate D2E/DX2                !
 ! D179  D(46,37,45,65)         63.7643         estimate D2E/DX2                !
 ! D180  D(46,37,45,66)       -177.651          estimate D2E/DX2                !
 ! D181  D(46,37,45,67)        -56.0629         estimate D2E/DX2                !
 ! D182  D(34,37,46,68)        175.3095         estimate D2E/DX2                !
 ! D183  D(34,37,46,69)        -66.1731         estimate D2E/DX2                !
 ! D184  D(34,37,46,70)         56.2685         estimate D2E/DX2                !
 ! D185  D(44,37,46,68)         50.7554         estimate D2E/DX2                !
 ! D186  D(44,37,46,69)        169.2728         estimate D2E/DX2                !
 ! D187  D(44,37,46,70)        -68.2856         estimate D2E/DX2                !
 ! D188  D(45,37,46,68)        -66.5173         estimate D2E/DX2                !
 ! D189  D(45,37,46,69)         52.0            estimate D2E/DX2                !
 ! D190  D(45,37,46,70)        174.4417         estimate D2E/DX2                !
 ! D191  D(35,38,47,71)        -59.2796         estimate D2E/DX2                !
 ! D192  D(35,38,47,72)        179.2473         estimate D2E/DX2                !
 ! D193  D(35,38,47,73)         61.4501         estimate D2E/DX2                !
 ! D194  D(48,38,47,71)        178.6047         estimate D2E/DX2                !
 ! D195  D(48,38,47,72)         57.1316         estimate D2E/DX2                !
 ! D196  D(48,38,47,73)        -60.6656         estimate D2E/DX2                !
 ! D197  D(49,38,47,71)         61.4418         estimate D2E/DX2                !
 ! D198  D(49,38,47,72)        -60.0313         estimate D2E/DX2                !
 ! D199  D(49,38,47,73)       -177.8285         estimate D2E/DX2                !
 ! D200  D(35,39,50,71)         60.5542         estimate D2E/DX2                !
 ! D201  D(35,39,50,74)       -178.3505         estimate D2E/DX2                !
 ! D202  D(35,39,50,75)        -60.1945         estimate D2E/DX2                !
 ! D203  D(51,39,50,71)       -178.1964         estimate D2E/DX2                !
 ! D204  D(51,39,50,74)        -57.101          estimate D2E/DX2                !
 ! D205  D(51,39,50,75)         61.055          estimate D2E/DX2                !
 ! D206  D(52,39,50,71)        -59.9243         estimate D2E/DX2                !
 ! D207  D(52,39,50,74)         61.1711         estimate D2E/DX2                !
 ! D208  D(52,39,50,75)        179.327          estimate D2E/DX2                !
 ! D209  D(38,47,71,50)         55.7738         estimate D2E/DX2                !
 ! D210  D(38,47,71,76)        177.3952         estimate D2E/DX2                !
 ! D211  D(38,47,71,77)        -64.5636         estimate D2E/DX2                !
 ! D212  D(72,47,71,50)        177.0494         estimate D2E/DX2                !
 ! D213  D(72,47,71,76)        -61.3292         estimate D2E/DX2                !
 ! D214  D(72,47,71,77)         56.712          estimate D2E/DX2                !
 ! D215  D(73,47,71,50)        -64.9152         estimate D2E/DX2                !
 ! D216  D(73,47,71,76)         56.7062         estimate D2E/DX2                !
 ! D217  D(73,47,71,77)        174.7474         estimate D2E/DX2                !
 ! D218  D(39,50,71,47)        -55.6662         estimate D2E/DX2                !
 ! D219  D(39,50,71,76)       -177.1432         estimate D2E/DX2                !
 ! D220  D(39,50,71,77)         64.7052         estimate D2E/DX2                !
 ! D221  D(74,50,71,47)       -176.6852         estimate D2E/DX2                !
 ! D222  D(74,50,71,76)         61.8378         estimate D2E/DX2                !
 ! D223  D(74,50,71,77)        -56.3137         estimate D2E/DX2                !
 ! D224  D(75,50,71,47)         64.861          estimate D2E/DX2                !
 ! D225  D(75,50,71,76)        -56.616          estimate D2E/DX2                !
 ! D226  D(75,50,71,77)       -174.7675         estimate D2E/DX2                !
 --------------------------------------------------------------------------------
 Trust Radius=3.00D-01 FncErr=1.00D-07 GrdErr=1.00D-06
 Number of steps in this run=    462 maximum allowed number of steps=    462.
 GradGradGradGradGradGradGradGradGradGradGradGradGradGradGradGradGradGrad

 Leave Link  103 at Wed Feb 28 14:29:02 2024, MaxMem=  4294967296 cpu:         0.1
 (Enter /cluster/apps/gaussian/g09/l202.exe)
 Stoichiometry    C28H37ClF4NO3PPdS
 Framework group  C1[X(C28H37ClF4NO3PPdS)]
 Deg. of freedom   225
 Full point group                 C1      NOp   1
 Largest Abelian subgroup         C1      NOp   1
 Largest concise Abelian subgroup C1      NOp   1
                         Standard orientation:                         
 ---------------------------------------------------------------------
 Center     Atomic      Atomic             Coordinates (Angstroms)
 Number     Number       Type             X           Y           Z
 ---------------------------------------------------------------------
      1         46           0       -0.261023   -0.784150    0.375721
      2          6           0        0.241155    1.111351    0.059009
      3          6           0       -0.644751    2.148805    0.358477
      4          1           0       -1.650383    1.926855    0.708317
      5          6           0       -0.294584    3.483083    0.210276
      6          1           0       -1.001854    4.281920    0.441303
      7          6           0        0.986443    3.820474   -0.237131
      8          6           0        1.892709    2.801695   -0.523517
      9          1           0        2.899311    3.042778   -0.858042
     10          6           0        1.535483    1.445831   -0.384090
     11          6           0        2.554515    0.418969   -0.687786
     12          6           0        3.472840    0.548412   -1.732363
     13          6           0        4.460555   -0.405289   -1.962249
     14          6           0        4.532225   -1.532020   -1.149054
     15          6           0        3.601773   -1.706807   -0.128876
     16          6           0        2.618779   -0.742463    0.115024
     17          7           0        1.628901   -0.984669    1.064472
     18         16           0        1.982441   -0.961127    2.650098
     19          8           0        1.040096   -1.837050    3.340654
     20          8           0        3.422935   -1.095425    2.845757
     21          6           0        1.649715    0.723068    3.250682
     22         17           0       -0.054425    1.055461    3.543626
     23          1           0        2.048239    1.429911    2.510577
     24          1           0        2.200551    0.794216    4.197659
     25          9           0        3.634517   -2.828580    0.567631
     26          9           0        5.453039   -2.452642   -1.381629
     27          9           0        5.317185   -0.253217   -2.961604
     28          9           0        3.430049    1.586883   -2.568486
     29          8           0        1.262420    5.137273   -0.355636
     30          6           0        2.530964    5.516985   -0.807625
     31          1           0        3.330561    5.182224   -0.122732
     32          1           0        2.536861    6.613780   -0.847534
     33          1           0        2.744653    5.120997   -1.816465
     34         15           0       -2.326220   -0.973369   -0.686380
     35          6           0       -3.446683    0.500533   -0.353480
     36          6           0       -2.106630   -0.993146   -2.575631
     37          6           0       -3.177620   -2.554040   -0.046808
     38          6           0       -4.730425    0.719848   -1.158810
     39          6           0       -3.802613    0.641508    1.127026
     40          1           0       -2.765136    1.328822   -0.595039
     41          6           0       -3.253382   -1.606186   -3.380808
     42          6           0       -1.871526    0.453229   -3.026954
     43          6           0       -0.818354   -1.768956   -2.860783
     44          6           0       -2.567466   -3.804505   -0.683713
     45          6           0       -2.864185   -2.611999    1.454127
     46          6           0       -4.689494   -2.568925   -0.267743
     47          6           0       -5.233551    2.143138   -0.902929
     48          1           0       -4.569533    0.601521   -2.227499
     49          1           0       -5.501733    0.013099   -0.854922
     50          6           0       -4.275038    2.064875    1.411375
     51          1           0       -2.938724    0.407304    1.741807
     52          1           0       -4.609261   -0.044280    1.390243
     53          1           0       -4.216259   -1.169012   -3.135690
     54          1           0       -3.067183   -1.427874   -4.439610
     55          1           0       -3.316461   -2.680498   -3.237460
     56          1           0       -1.415653    0.451594   -4.015807
     57          1           0       -2.790690    1.027230   -3.090410
     58          1           0       -1.190106    0.959374   -2.345239
     59          1           0        0.029207   -1.293815   -2.361062
     60          1           0       -0.619470   -1.774025   -3.931777
     61          1           0       -0.881297   -2.800594   -2.525502
     62          1           0       -2.814583   -3.894831   -1.736861
     63          1           0       -1.487884   -3.801406   -0.560493
     64          1           0       -2.958437   -4.686758   -0.177858
     65          1           0       -3.218908   -3.556236    1.864950
     66          1           0       -1.781302   -2.559391    1.618428
     67          1           0       -3.342584   -1.808294    2.005271
     68          1           0       -5.082781   -3.534870    0.047685
     69          1           0       -5.187365   -1.805737    0.321853
     70          1           0       -4.943427   -2.431223   -1.314598
     71          6           0       -5.515358    2.373539    0.578384
     72          1           0       -6.142604    2.316609   -1.482945
     73          1           0       -4.479397    2.857183   -1.241801
     74          1           0       -4.501659    2.175347    2.473364
     75          1           0       -3.477801    2.769947    1.166168
     76          1           0       -5.827572    3.406439    0.739704
     77          1           0       -6.334833    1.724549    0.896476
 ---------------------------------------------------------------------
 Rotational constants (GHZ):      0.0968707      0.0606126      0.0563358
 Leave Link  202 at Wed Feb 28 14:29:03 2024, MaxMem=  4294967296 cpu:         1.0
 (Enter /cluster/apps/gaussian/g09/l301.exe)
 General basis read from cards:  (5D, 7F)
 Centers:       2      3      5      7      8     10     11     12     13     14
 Centers:      15     16     21     30     35     36     37     38     39     41
 Centers:      42     43     44     45     46     47     50     71      4      6
 Centers:       9     23     24     31     32     33     40     48     49     51
 Centers:      52     53     54     55     56     57     58     59     60     61
 Centers:      62     63     64     65     66     67     68     69     70     72
 Centers:      73     74     75     76     77     17     19     20     29     18
 Centers:      25     26     27     28     22     34
 def2svp
 ****
 Centers:       1
 def2tzvp
 ****
 ======================================================================================================
                                       Pseudopotential Parameters
 ======================================================================================================
  Center     Atomic      Valence      Angular      Power
  Number     Number     Electrons     Momentum     of R      Exponent        Coefficient   SO-Coeffient
 ======================================================================================================
    1         46           18
                                      G and up 
                                                     2        1.0000000        0.00000000    0.00000000
                                      S - G
                                                     2       12.4300000      240.22904000    0.00000000
                                                     2        6.1707590       35.17194300    0.00000000
                                      P - G
                                                     2       11.0800000      170.41727600    0.00000000
                                                     2        5.8295540       28.47213300    0.00000000
                                      D - G
                                                     2        9.5100000       69.01384500    0.00000000
                                                     2        4.1397810       11.75086200    0.00000000
                                      F - G
                                                     2       13.2700000      -31.92955400    0.00000000
                                                     2        6.6300000       -5.39821700    0.00000000
    2          6
                                   No pseudopotential on this center.
    3          6
                                   No pseudopotential on this center.
    4          1
                                   No pseudopotential on this center.
    5          6
                                   No pseudopotential on this center.
    6          1
                                   No pseudopotential on this center.
    7          6
                                   No pseudopotential on this center.
    8          6
                                   No pseudopotential on this center.
    9          1
                                   No pseudopotential on this center.
   10          6
                                   No pseudopotential on this center.
   11          6
                                   No pseudopotential on this center.
   12          6
                                   No pseudopotential on this center.
   13          6
                                   No pseudopotential on this center.
   14          6
                                   No pseudopotential on this center.
   15          6
                                   No pseudopotential on this center.
   16          6
                                   No pseudopotential on this center.
   17          7
                                   No pseudopotential on this center.
   18         16
                                   No pseudopotential on this center.
   19          8
                                   No pseudopotential on this center.
   20          8
                                   No pseudopotential on this center.
   21          6
                                   No pseudopotential on this center.
   22         17
                                   No pseudopotential on this center.
   23          1
                                   No pseudopotential on this center.
   24          1
                                   No pseudopotential on this center.
   25          9
                                   No pseudopotential on this center.
   26          9
                                   No pseudopotential on this center.
   27          9
                                   No pseudopotential on this center.
   28          9
                                   No pseudopotential on this center.
   29          8
                                   No pseudopotential on this center.
   30          6
                                   No pseudopotential on this center.
   31          1
                                   No pseudopotential on this center.
   32          1
                                   No pseudopotential on this center.
   33          1
                                   No pseudopotential on this center.
   34         15
                                   No pseudopotential on this center.
   35          6
                                   No pseudopotential on this center.
   36          6
                                   No pseudopotential on this center.
   37          6
                                   No pseudopotential on this center.
   38          6
                                   No pseudopotential on this center.
   39          6
                                   No pseudopotential on this center.
   40          1
                                   No pseudopotential on this center.
   41          6
                                   No pseudopotential on this center.
   42          6
                                   No pseudopotential on this center.
   43          6
                                   No pseudopotential on this center.
   44          6
                                   No pseudopotential on this center.
   45          6
                                   No pseudopotential on this center.
   46          6
                                   No pseudopotential on this center.
   47          6
                                   No pseudopotential on this center.
   48          1
                                   No pseudopotential on this center.
   49          1
                                   No pseudopotential on this center.
   50          6
                                   No pseudopotential on this center.
   51          1
                                   No pseudopotential on this center.
   52          1
                                   No pseudopotential on this center.
   53          1
                                   No pseudopotential on this center.
   54          1
                                   No pseudopotential on this center.
   55          1
                                   No pseudopotential on this center.
   56          1
                                   No pseudopotential on this center.
   57          1
                                   No pseudopotential on this center.
   58          1
                                   No pseudopotential on this center.
   59          1
                                   No pseudopotential on this center.
   60          1
                                   No pseudopotential on this center.
   61          1
                                   No pseudopotential on this center.
   62          1
                                   No pseudopotential on this center.
   63          1
                                   No pseudopotential on this center.
   64          1
                                   No pseudopotential on this center.
   65          1
                                   No pseudopotential on this center.
   66          1
                                   No pseudopotential on this center.
   67          1
                                   No pseudopotential on this center.
   68          1
                                   No pseudopotential on this center.
   69          1
                                   No pseudopotential on this center.
   70          1
                                   No pseudopotential on this center.
   71          6
                                   No pseudopotential on this center.
   72          1
                                   No pseudopotential on this center.
   73          1
                                   No pseudopotential on this center.
   74          1
                                   No pseudopotential on this center.
   75          1
                                   No pseudopotential on this center.
   76          1
                                   No pseudopotential on this center.
   77          1
                                   No pseudopotential on this center.
 ======================================================================================================
 Ernie: Thresh=  0.10000D-02 Tol=  0.10000D-05 Strict=F.
 There are   828 symmetry adapted cartesian basis functions of A   symmetry.
 There are   783 symmetry adapted basis functions of A   symmetry.
   783 basis functions,  1344 primitive gaussians,   828 cartesian basis functions
   169 alpha electrons      169 beta electrons
       nuclear repulsion energy      6531.8004088462 Hartrees.
 IExCor= 1009 DFT=T Ex+Corr=PBE1PBE ExCW=0 ScaHFX=  0.250000
 ScaDFX=  0.750000  0.750000  1.000000  1.000000 ScalE2=  1.000000  1.000000
 IRadAn=      5 IRanWt=     -1 IRanGd=            0 ICorTp=0 IEmpDi=141
 NAtoms=   77 NActive=   77 NUniq=   77 SFac= 1.00D+00 NAtFMM=   60 NAOKFM=T Big=T
 Integral buffers will be    131072 words long.
 Raffenetti 2 integral format.
 Two-electron integral symmetry is turned on.
 R6Disp:  Grimme-D3(BJ) Dispersion energy=       -0.1256315591 Hartrees.
 Nuclear repulsion after empirical dispersion term =     6531.6747772871 Hartrees.
 Leave Link  301 at Wed Feb 28 14:29:03 2024, MaxMem=  4294967296 cpu:         0.3
 (Enter /cluster/apps/gaussian/g09/l302.exe)
 NPDir=0 NMtPBC=     1 NCelOv=     1 NCel=       1 NClECP=     1 NCelD=      1
         NCelK=      1 NCelE2=     1 NClLst=     1 CellRange=     0.0.
 One-electron integrals computed using PRISM.
   1 Symmetry operations used in ECPInt.
 ECPInt:  NShTT=   66795 NPrTT=  240439 LenC2=   55116 LenP2D=  127384.
 LDataN:  DoStor=T MaxTD1= 7 Len=  274
 NBasis=   783 RedAO= T EigKep=  1.18D-04  NBF=   783
 NBsUse=   783 1.00D-06 EigRej= -1.00D+00 NBFU=   783
 Precomputing XC quadrature grid using
 IXCGrd= 4 IRadAn=           5 IRanWt=          -1 IRanGd=           0 AccXCQ= 0.00D+00.
 Defaulting to unpruned grid for atomic number  46.
 Generated NRdTot=       0 NPtTot=           0 NUsed=           0 NTot=          32
 NSgBfM=   793   793   796   796   797 MxSgAt=    77 MxSgA2=    77.
 Leave Link  302 at Wed Feb 28 14:29:06 2024, MaxMem=  4294967296 cpu:        40.5
 (Enter /cluster/apps/gaussian/g09/l303.exe)
 DipDrv:  MaxL=1.
 Leave Link  303 at Wed Feb 28 14:29:07 2024, MaxMem=  4294967296 cpu:         3.9
 (Enter /cluster/apps/gaussian/g09/l401.exe)
 ExpMin= 3.70D-02 ExpMax= 1.04D+04 ExpMxC= 1.57D+03 IAcc=3 IRadAn=         5 AccDes= 0.00D+00
 Harris functional with IExCor= 1009 and IRadAn=       5 diagonalized for initial guess.
 HarFok:  IExCor= 1009 AccDes= 0.00D+00 IRadAn=         5 IDoV= 1 UseB2=F ITyADJ=14
 ICtDFT=  3500011 ScaDFX=  1.000000  1.000000  1.000000  1.000000
 Defaulting to unpruned grid for atomic number  46.
 Defaulting to unpruned grid for atomic number  46.
 Defaulting to unpruned grid for atomic number  46.
 Defaulting to unpruned grid for atomic number  46.
 Defaulting to unpruned grid for atomic number  46.
 Defaulting to unpruned grid for atomic number  46.
 Defaulting to unpruned grid for atomic number  46.
 Defaulting to unpruned grid for atomic number  46.
 Defaulting to unpruned grid for atomic number  46.
 Defaulting to unpruned grid for atomic number  46.
 Defaulting to unpruned grid for atomic number  46.
 Defaulting to unpruned grid for atomic number  46.
 Defaulting to unpruned grid for atomic number  46.
 Defaulting to unpruned grid for atomic number  46.
 Defaulting to unpruned grid for atomic number  46.
 Defaulting to unpruned grid for atomic number  46.
 FoFCou: FMM=F IPFlag=           0 FMFlag=      100000 FMFlg1=        2001
         NFxFlg=           0 DoJE=T BraDBF=F KetDBF=T FulRan=T
         wScrn=  0.000000 ICntrl=     500 IOpCl=  0 I1Cent=   200000004 NGrid=           0
         NMat0=    1 NMatS0=      1 NMatT0=    0 NMatD0=    1 NMtDS0=    0 NMtDT0=    0
 Petite list used in FoFCou.
 Harris En= -3093.28360711391    
 JPrj=0 DoOrth=F DoCkMO=F.
 Leave Link  401 at Wed Feb 28 14:29:13 2024, MaxMem=  4294967296 cpu:        72.3
 (Enter /cluster/apps/gaussian/g09/l502.exe)
 Closed shell SCF:
 Using DIIS extrapolation, IDIIS=  1040.
 Integral symmetry usage will be decided dynamically.
 IVT=     2094820 IEndB=     2094820 NGot=  4294967296 MDV=  4293575529
 LenX=  4293575529 LenY=  4292889117
 Requested convergence on RMS density matrix=1.00D-08 within 128 cycles.
 Requested convergence on MAX density matrix=1.00D-06.
 Requested convergence on             energy=1.00D-06.
 No special actions if energy rises.
 Fock matrices will be formed incrementally for  20 cycles.

 Cycle   1  Pass 1  IDiag  1:
 FoFJK:  IHMeth= 1 ICntrl=       0 DoSepK=F KAlg= 0 I1Cent=   0 FoldK=F
 IRaf= 900000000 NMat=   1 IRICut=       1 DoRegI=T DoRafI=F ISym2E= 0.
 FoFCou: FMM=T IPFlag=           0 FMFlag=      100000 FMFlg1=        2001
         NFxFlg=           0 DoJE=F BraDBF=F KetDBF=F FulRan=T
         wScrn=  0.000000 ICntrl=       0 IOpCl=  0 I1Cent=           0 NGrid=           0
         NMat0=    1 NMatS0=      1 NMatT0=    0 NMatD0=    1 NMtDS0=    0 NMtDT0=    0
 Symmetry not used in FoFCou.
 FMM levels:  10  Number of levels for PrismC:   9
 Defaulting to unpruned grid for atomic number  46.
 Defaulting to unpruned grid for atomic number  46.
 Defaulting to unpruned grid for atomic number  46.
 Defaulting to unpruned grid for atomic number  46.
 Defaulting to unpruned grid for atomic number  46.
 Defaulting to unpruned grid for atomic number  46.
 Defaulting to unpruned grid for atomic number  46.
 Defaulting to unpruned grid for atomic number  46.
 Defaulting to unpruned grid for atomic number  46.
 Defaulting to unpruned grid for atomic number  46.
 Defaulting to unpruned grid for atomic number  46.
 Defaulting to unpruned grid for atomic number  46.
 Defaulting to unpruned grid for atomic number  46.
 Defaulting to unpruned grid for atomic number  46.
 Defaulting to unpruned grid for atomic number  46.
 Defaulting to unpruned grid for atomic number  46.
 E= -3088.13072254903    
 DIIS: error= 5.77D-02 at cycle   1 NSaved=   1.
 NSaved= 1 IEnMin= 1 EnMin= -3088.13072254903     IErMin= 1 ErrMin= 5.77D-02
 ErrMax= 5.77D-02  0.00D+00 EMaxC= 1.00D-01 BMatC= 4.62D+00 BMatP= 4.62D+00
 IDIUse=3 WtCom= 4.23D-01 WtEn= 5.77D-01
 Coeff-Com:  0.100D+01
 Coeff-En:   0.100D+01
 Coeff:      0.100D+01
 Gap=    -1.434 Goal=   None    Shift=    0.000
 GapD=   -1.434 DampG=0.250 DampE=0.250 DampFc=0.1250 IDamp=-1.
 Damping current iteration by 1.25D-01
 RMSDP=3.60D-02 MaxDP=1.10D+01              OVMax= 9.18D-01

 Cycle   2  Pass 1  IDiag  1:
 RMSU=  4.50D-03    CP:  1.00D+00
 E= -3089.11351132321     Delta-E=       -0.982788774181 Rises=F Damp=T
 DIIS: error= 2.46D-02 at cycle   2 NSaved=   2.
 NSaved= 2 IEnMin= 2 EnMin= -3089.11351132321     IErMin= 2 ErrMin= 2.46D-02
 ErrMax= 2.46D-02  0.00D+00 EMaxC= 1.00D-01 BMatC= 1.34D+00 BMatP= 4.62D+00
 IDIUse=3 WtCom= 7.54D-01 WtEn= 2.46D-01
 Coeff-Com: -0.715D+00 0.171D+01
 Coeff-En:   0.142D+00 0.858D+00
 Coeff:     -0.504D+00 0.150D+01
 Gap=    -0.082 Goal=   None    Shift=    0.000
 RMSDP=7.87D-03 MaxDP=1.10D+00 DE=-9.83D-01 OVMax= 8.90D-01

 Cycle   3  Pass 1  IDiag  1:
 RMSU=  6.90D-03    CP:  9.62D-01  1.66D-01
 E= -3079.66777114666     Delta-E=        9.445740176547 Rises=F Damp=F
 DIIS: error= 5.26D-02 at cycle   3 NSaved=   3.
 NSaved= 3 IEnMin= 2 EnMin= -3089.11351132321     IErMin= 2 ErrMin= 2.46D-02
 ErrMax= 5.26D-02  0.00D+00 EMaxC= 1.00D-01 BMatC= 8.43D+00 BMatP= 1.34D+00
 IDIUse=2 WtCom= 0.00D+00 WtEn= 1.00D+00
 EnCoef did     2 forward-backward iterations
 Coeff-En:   0.171D-01 0.826D+00 0.157D+00
 Coeff:      0.171D-01 0.826D+00 0.157D+00
 Gap=     0.006 Goal=   None    Shift=    0.000
 RMSDP=8.32D-03 MaxDP=1.84D+00 DE= 9.45D+00 OVMax= 8.79D-01

 Cycle   4  Pass 1  IDiag  1:
 RMSU=  5.74D-03    CP:  9.58D-01  6.49D-01  1.86D-01
 E= -3085.19985638772     Delta-E=       -5.532085241064 Rises=F Damp=F
 DIIS: error= 5.01D-02 at cycle   4 NSaved=   4.
 NSaved= 4 IEnMin= 2 EnMin= -3089.11351132321     IErMin= 2 ErrMin= 2.46D-02
 ErrMax= 5.01D-02  0.00D+00 EMaxC= 1.00D-01 BMatC= 6.20D+00 BMatP= 1.34D+00
 IDIUse=2 WtCom= 0.00D+00 WtEn= 1.00D+00
 EnCoef did   100 forward-backward iterations
 Coeff-En:   0.539D+00 0.112D-01 0.505D-01 0.399D+00
 Coeff:      0.539D+00 0.112D-01 0.505D-01 0.399D+00
 Gap=     0.281 Goal=   None    Shift=    0.000
 RMSDP=5.54D-03 MaxDP=1.93D+00 DE=-5.53D+00 OVMax= 8.14D-01

 Cycle   5  Pass 1  IDiag  1:
 RMSU=  2.49D-03    CP:  9.58D-01  1.17D-01  2.03D-01  2.45D-01
 E= -3092.20446525899     Delta-E=       -7.004608871264 Rises=F Damp=F
 DIIS: error= 1.12D-02 at cycle   5 NSaved=   5.
 NSaved= 5 IEnMin= 5 EnMin= -3092.20446525899     IErMin= 5 ErrMin= 1.12D-02
 ErrMax= 1.12D-02  0.00D+00 EMaxC= 1.00D-01 BMatC= 5.73D-01 BMatP= 1.34D+00
 IDIUse=3 WtCom= 8.88D-01 WtEn= 1.12D-01
 Coeff-Com: -0.212D+00 0.659D+00-0.234D-01-0.227D-01 0.600D+00
 Coeff-En:   0.890D-01 0.000D+00 0.000D+00 0.000D+00 0.911D+00
 Coeff:     -0.179D+00 0.585D+00-0.208D-01-0.201D-01 0.634D+00
 Gap=     0.167 Goal=   None    Shift=    0.000
[...]
 68,0.00000192,-0.00000383,-0.00000538,0.00000231,-0.00000045,0.0000067
 9,-0.00000733,0.00000345,0.00000657,0.00000141,-0.00000309,-0.00002090
 ,0.00000882,0.00001128,0.00000616,-0.00002860,0.00002207,0.00001527,-0
 .00002115,-0.00001314,-0.00003079,-0.00006923,0.00000526,-0.00000690,-
 0.00000410,0.00004111,-0.00000431,0.00002820,0.00000968,0.00002181,-0.
 00002665,-0.00764172,0.01132009,-0.00026669,0.00014835,-0.00022958,0.0
 0019298,0.00004820,-0.00040275,-0.00013388,0.01622194,-0.02463433,-0.0
 0012432,-0.00628752,0.00849374,0.04858574,0.00003645,0.00001637,0.0000
 0488,0.00003033,-0.00006844,0.00002371,-0.00000097,0.00002294,-0.00001
 047,0.00001163,-0.00005208,0.00000217,-0.00002397,-0.00001711,0.000006
 86,-0.00000847,0.00001114,0.00000215,0.00001937,-0.00005845,0.00000122
 ,-0.00000621,0.00001703,-0.00000622,-0.00000224,0.00000425,-0.00000033
 ,0.00000564,0.00003236,-0.00000233,-0.00000287,0.00000610,0.00001071,0
 .00000984,-0.00001984,-0.00001823,0.00002305,0.00000237,-0.00001650,0.
 00002315,0.00001949,-0.00000840,-0.00001310,0.00001022,0.00000634,0.00
 004635,-0.00000633,-0.00003400,-0.00005617,-0.00000401,-0.00003356,0.0
 0005952,0.00001249,0.00006723,-0.00003023,-0.00000929,-0.00002204,-0.0
 0004359,-0.00001386,-0.00002740,0.00002814,0.00004093,-0.00003582,-0.0
 0003941,-0.00002527,0.00001673,-0.00000955,-0.00000862,0.00000247,-0.0
 0001796,-0.00000906,0.00000415,-0.00000154,-0.00001007,-0.00000233,-0.
 00001846,-0.00002228,0.00000564,-0.00002749,-0.00000011,0.00002193,-0.
 00000844,0.00001688,0.00001456,-0.00004218,0.00007580,0.00000107,0.000
 02404,-0.00000572,-0.00000382,-0.00000335,-0.00000286,0.00000156,-0.00
 000279,0.00000428,0.00000057,-0.00000334,-0.00000236,-0.00000022,0.000
 19837,0.00016277,-0.00007318,0.00030431,0.00023803,-0.00046821,-0.0000
 1966,-0.00009429,-0.00000696,-0.00004797,0.00001799,-0.00000602,0.0007
 7872,0.00056460,0.00023694,-0.00504407,0.00033081,-0.00404075,-0.00000
 638,0.00003175,0.00005054,-0.00001326,0.00002642,0.00002371,-0.0000026
 4,-0.00000917,0.00002350,0.00001234,0.00003396,0.00003997,0.00002862,-
 0.00001476,0.00000424,0.00004211,-0.00001531,-0.00004937,-0.00000580,-
 0.00001280,0.00002327,-0.00188601,-0.00113611,0.00084613,0.00019518,-0
 .00024781,-0.00005200,-0.00005086,-0.00031961,0.00016821,-0.01283023,-
 0.02254502,0.01403961,-0.00068226,-0.00132652,0.00090706,0.00015458,-0
 .00009632,-0.00009749,-0.00000512,-0.00000375,-0.00000565,0.00000311,-
 0.00000373,0.00001998,0.00000024,-0.00000191,-0.00000297,-0.00000664,0
 .00000374,0.00001185,0.,-0.00000842,-0.00000519,0.00000535,-0.00000497
 ,-0.00000540,0.00000415,-0.00000527,-0.00000535,-0.00001380,-0.0000014
 7,0.00001434,0.00000167,-0.00000032,-0.00000492,-0.00000260,0.00000028
 ,0.00000922,0.00000462,0.00000637,-0.00000479,-0.00000283,-0.00000972,
 0.00000162,-0.00001520,-0.00002603,0.00002876,-0.00000488,0.00000791,0
 .00000814,-0.00002656,0.00005215,0.00003130,0.00000509,-0.00000842,-0.
 00000195,-0.00003377,0.00000200,-0.00001069,0.00000040,0.00000044,0.00
 000735,-0.10138051,-0.09311836,0.05469325,0.00037721,0.00040184,0.0000
 0237,0.00000032,-0.00022961,0.00007062,0.00102904,0.00015385,-0.000124
 64,0.00074860,0.00032005,0.00061851,0.10998880,0.00002684,0.00000658,0
 .00002574,0.00001063,-0.00003318,0.00001221,0.00001971,0.00001004,-0.0
 0000495,0.00000585,-0.00001575,-0.00000669,-0.00002125,-0.00000800,0.0
 0000292,0.00000357,-0.00000010,0.00000088,0.00002481,-0.00006217,0.000
 00046,-0.00001023,0.00001738,-0.00000382,-0.00000222,0.00000169,0.0000
 0021,0.00000872,0.00001310,-0.00000097,-0.00000253,0.00000733,0.000006
 85,0.00001159,-0.00001594,-0.00001583,0.00002625,0.00000093,-0.0000202
 7,0.00002600,0.00002614,-0.00000758,-0.00001107,0.00001518,0.00000960,
 0.00003274,-0.00000518,-0.00002610,-0.00005167,-0.00001266,-0.00004321
 ,0.00004277,0.00002591,0.00007960,-0.00001868,-0.00001271,-0.00002601,
 -0.00004050,-0.00001759,-0.00002990,0.00002860,0.00002399,-0.00002619,
 -0.00003477,-0.00001692,0.00001077,-0.00000493,-0.00000525,0.00000339,
 -0.00001373,-0.00000608,0.00000351,-0.00000095,-0.00001532,-0.00000503
 ,-0.00002324,-0.00002943,0.00000612,-0.00003010,-0.00000090,0.00002341
 ,-0.00000886,0.00001130,0.00001298,-0.00005092,0.00006610,0.00000380,0
 .00003558,-0.00000648,-0.00000611,-0.00000475,-0.00000362,0.00000060,-
 0.00000217,0.00000452,0.00000041,-0.00000404,-0.00000292,0.00000115,0.
 00016117,0.00010686,-0.00005759,0.00013384,-0.00012341,-0.00018684,-0.
 00003117,-0.00003905,-0.00001145,-0.00002148,-0.00001949,0.00003079,0.
 00024476,0.00065199,-0.00126794,-0.00134488,0.00094338,-0.00124054,-0.
 00004003,-0.00001549,0.00005339,-0.00000737,0.00001091,-0.00000321,0.0
 0000965,0.00000088,0.00001079,0.00000928,0.00001258,0.00002653,-0.0000
 0409,-0.00000500,-0.00001167,0.00000655,0.00001913,-0.00002115,0.00002
 632,0.00003108,-0.00004465,0.00469558,0.00595792,-0.00482198,-0.000060
 53,0.00027756,-0.00024548,0.00003973,0.00031494,-0.00023983,0.00017003
 ,-0.00334563,0.00165535,-0.00027090,-0.00009419,0.00048825,0.00023348,
 0.00051109,-0.00013336,0.00000110,-0.00000551,0.00000125,0.00000406,0.
 00000334,0.00000765,0.00000251,-0.00000109,-0.00000470,-0.00000763,0.0
 0000015,0.00000943,-0.00000980,-0.00000534,-0.00000986,0.00000576,-0.0
 0000404,-0.00000128,0.00000409,-0.00000178,-0.00000330,-0.00000848,0.0
 0000101,0.00000937,0.00000041,-0.00000300,-0.00000381,0.00000096,0.000
 00096,0.00000526,-0.00000529,0.00000023,0.00000243,0.00000050,-0.00000
 542,0.00000218,-0.00000312,-0.00000580,0.00000961,-0.00001220,0.000001
 67,0.00000904,0.00000927,0.00002515,0.00001636,-0.00001088,-0.00001282
 ,0.00001137,-0.00001030,0.00002952,0.00000044,-0.00000759,-0.00000529,
 0.00001113,-0.09514561,-0.20870349,0.09459065,0.00004450,0.00020951,0.
 00060199,0.00007083,0.00081112,0.00037499,-0.00011390,-0.00011071,-0.0
 0022073,-0.00010548,0.00080704,-0.00025028,0.10292604,0.21975898,-0.00
 000695,0.00005147,-0.00006513,-0.00005141,0.00001141,0.00000868,0.0000
 2240,-0.00001914,0.00001444,0.00000804,-0.00000038,-0.00002884,0.00000
 744,0.00000594,0.00000688,0.00000400,-0.00000351,-0.00000122,-0.000014
 39,0.00002488,-0.00000233,-0.00000077,-0.00000290,0.00000366,0.0000005
 0,-0.00000083,-0.00000119,-0.00000266,-0.00001187,0.00000283,-0.000001
 03,-0.00000036,-0.00000420,-0.00000498,0.00000229,0.00000298,-0.000008
 53,0.00000036,0.00000637,-0.00000836,-0.00000833,0.00000087,0.00000409
 ,-0.00000636,-0.00000488,-0.00000626,0.00000359,0.00001370,0.00004652,
 0.00002117,0.00008555,0.00002217,0.00001520,-0.00010571,-0.00001090,-0
 .00000459,0.00002228,0.00000474,-0.00000386,0.00003094,0.00002010,0.00
 001703,-0.00000887,-0.00002584,-0.00001672,0.00001777,-0.00000635,-0.0
 0000241,-0.00000213,-0.00001006,-0.00000630,0.00000286,0.00000020,0.00
 000513,0.00000311,0.00000735,0.00000914,-0.00000167,0.00000907,0.00000
 018,-0.00000644,0.00000265,-0.00000185,-0.00000143,0.00001800,-0.00003
 131,-0.00000034,-0.00001119,0.00000332,0.00000042,0.00000168,0.0000011
 5,-0.00000024,0.00000117,-0.00000188,-0.00000008,0.00000114,0.00000087
 ,0.00000024,-0.00012020,-0.00005080,0.00004368,-0.00051965,-0.00020989
 ,-0.00007671,-0.00002581,-0.00004599,-0.00000111,0.00001670,-0.0000090
 5,-0.00002400,-0.00019202,-0.00316534,-0.00638387,-0.00314776,-0.00047
 005,-0.00105784,0.00008414,0.00001779,0.00004965,-0.00012507,0.0000207
 6,-0.00003080,-0.00002766,-0.00006975,0.00003074,0.00001212,0.00000268
 ,0.00003222,0.00000139,0.00002263,0.00001693,0.00001821,-0.00001170,-0
 .00004504,-0.00000295,0.00003017,-0.00000005,0.01444783,0.02577126,-0.
 01357517,0.00116242,0.00136846,-0.00095592,-0.00023477,-0.00022011,0.0
 0019213,-0.00649348,-0.01270713,0.00697869,-0.00061820,-0.00052453,0.0
 0051675,0.00012201,0.00023864,-0.00013667,0.00009224,-0.00001397,0.000
 06424,0.00005533,0.00001003,-0.00001057,0.00003756,0.00001681,-0.00001
 675,0.00002039,0.00001593,-0.00001029,-0.00000556,0.00007531,0.0000016
 8,0.00002355,0.00000825,-0.00001567,0.00001136,-0.00000006,-0.00000599
 ,-0.00000768,-0.00000073,0.00000176,0.00000187,0.00000478,-0.00000402,
 -0.00000266,-0.00001078,0.00001099,0.00000389,-0.00000115,-0.00000313,
 0.00000057,0.00001043,-0.00000212,-0.00000425,-0.00000402,0.00001873,0
 .00000549,-0.00000028,0.00000822,-0.00000726,0.00001854,0.00001711,0.0
 0002382,0.00002457,0.00000448,0.00000121,-0.00002294,-0.00005135,0.000
 00090,-0.00003095,0.00004663,0.05513116,0.09335785,-0.10064144,-0.0005
 2378,0.00027133,0.00084906,0.00019818,-0.00022229,0.00118255,0.0005553
 1,-0.00023441,0.00052154,0.00051668,0.00029555,0.00041406,-0.05825055,
 -0.09997779,0.11066860,-0.00001413,0.00002245,-0.00002081,-0.00007454,
 0.00006840,0.00001869,0.00010213,-0.00003939,-0.00000108,0.00000457,0.
 00004651,-0.00004780,-0.00002014,-0.00000507,0.00001335,0.00001511,-0.
 00001947,-0.00000830,0.00001370,-0.00001494,-0.00000562,-0.00000746,0.
 00000647,0.00000373,-0.00000014,-0.00000350,0.00000003,0.00000409,-0.0
 0003906,0.00000143,-0.00000297,0.00000576,-0.00000469,0.00000287,0.000
 00053,-0.00000093,0.00000554,-0.00000126,-0.00000538,0.00000588,0.0000
 1088,-0.00000060,-0.00000188,0.00001558,0.00000734,-0.00001064,-0.0000
 0049,0.00000831,0.00002486,-0.00000941,0.00003369,-0.00004124,0.000099
 59,-0.00005127,0.00003865,-0.00004426,0.00000809,-0.00000348,-0.000033
 19,0.00001155,0.00006426,-0.00000181,0.00000163,-0.00000963,-0.0000013
 6,0.00002985,-0.00000610,-0.00000491,0.00000149,-0.00001174,-0.0000060
 3,0.00000323,0.00000377,-0.00001490,-0.00000500,-0.00000828,-0.0000126
 8,0.00000138,-0.00000602,-0.00000132,0.00000418,-0.00000144,-0.0000049
 3,0.00000090,-0.00002001,0.00000476,0.00000612,0.00001589,-0.00000152,
 -0.00000489,-0.00000167,-0.00000073,-0.00000028,-0.00000080,0.00000110
 ,-0.00000026,-0.00000178,-0.00000127,0.00000193,-0.00004665,0.00004453
 ,0.00003885,-0.00011612,-0.00026423,0.00004769,-0.00001726,-0.00002687
 ,0.00000847,-0.00003503,0.00004617,-0.00000707,-0.00006626,0.00056759,
 -0.00049723,0.00147652,0.00183327,0.00030634,0.00017597,-0.00003979,-0
 .00021316,-0.00001142,-0.00000169,-0.00000213,0.00001071,-0.00000895,-
 0.00001372,0.00000348,0.00000195,0.00000885,0.00003701,-0.00002956,-0.
 00000314,0.00000484,-0.00004784,0.00002197,-0.00005084,-0.00005660,0.0
 0006740,-0.00162936,0.00156076,0.00000302,0.00014571,-0.00020367,-0.00
 001393,-0.00009958,-0.00028886,0.00037330,-0.01857007,0.02405886,0.002
 84575,0.00043873,-0.00027497,-0.00030770,-0.00009607,-0.00112056,0.000
 24425,0.00000291,0.00001266,0.00000100,0.00000786,-0.00000233,-0.00000
 156,-0.00000141,-0.00000520,0.00000664,0.00000281,-0.00000196,-0.00000
 081,0.00000191,0.00000680,-0.00000399,0.00000570,0.00000191,-0.0000058
 5,0.00000376,0.00000136,-0.00000169,-0.00000225,-0.00000078,0.00000091
 ,-0.00000263,-0.00000074,0.00000235,-0.00000286,0.00000304,-0.00000182
 ,0.00001303,0.00001100,-0.00000816,-0.00000577,-0.00001088,0.00000465,
 0.00000050,-0.00001056,-0.00000105,0.00003199,0.00000422,-0.00000838,-
 0.00003406,0.00000330,-0.00001682,0.00002658,0.00000855,-0.00001077,-0
 .00001035,-0.00002925,-0.00000082,0.00000910,0.00000558,-0.00000573,-0
 .13301194,0.11958366,0.01992225,0.00062242,-0.00050006,0.00019190,0.00
 104259,0.00000020,0.00025593,0.00112346,-0.00019722,-0.00001494,-0.004
 95449,-0.00147883,-0.00250288,0.00824307,-0.01154671,-0.00224661,0.145
 27649,-0.00001381,0.00000665,-0.00001767,0.00000263,-0.00000231,-0.000
 01051,-0.00001226,-0.00000129,0.00002010,0.00000787,-0.00000707,-0.000
 02311,0.00000924,-0.00000027,0.00000419,-0.00000879,0.00000615,-0.0000
 0214,-0.00001535,0.00003243,-0.00000072,0.00000876,-0.00000892,0.00000
 178,0.00000116,0.00000009,-0.00000039,-0.00000992,0.00000152,-0.000000
 08,0.00000053,-0.00000528,-0.00000162,-0.00000841,0.00000323,0.0000064
 8,-0.00001662,0.00000113,0.00001388,-0.00001810,-0.00002207,0.00000327
 ,0.00000747,-0.00002120,-0.00001167,-0.00000757,0.00000370,0.00001063,
 0.00002420,0.00001788,0.00004691,0.00000622,-0.00004533,-0.00007333,-0
 .00001217,0.00002362,0.00002162,0.00001917,0.00001757,0.00002483,-0.00
 001701,-0.00000497,0.00000600,0.00001111,0.00000578,0.00000375,0.00000
 097,0.00000243,-0.00000311,0.00000445,0.00000023,-0.00000056,-0.000002
 19,0.00001968,0.00000795,0.00001820,0.00002480,-0.00000401,0.00001880,
 0.00000154,-0.00001399,0.00000483,0.00000042,-0.00000447,0.00003279,-0
 .00002671,-0.00000350,-0.00002713,0.00000346,0.00000440,0.00000351,0.0
 0000259,0.00000069,0.00000050,-0.00000241,-0.00000018,0.00000236,0.000
 00176,-0.00000157,-0.00006587,-0.00010109,0.00003705,-0.00003991,0.000
 07838,-0.00002253,0.00003271,0.00002466,-0.00000295,0.00004157,-0.0000
 3260,0.00000240,-0.00056007,0.00089788,0.00068439,-0.00060835,0.001146
 73,-0.00009660,-0.00006751,-0.00020883,0.00003738,-0.00000537,0.000002
 49,-0.00000582,-0.00003641,-0.00000664,-0.00000094,-0.00000840,-0.0000
 0064,-0.00001571,-0.00002615,0.00002627,0.00000683,-0.00000754,0.00002
 221,0.00000173,0.00001064,0.00004677,-0.00002445,0.00291373,-0.0059197
 8,-0.00074050,-0.00013623,0.00014286,-0.00003849,0.00037630,0.00051884
 ,-0.00027249,-0.00418059,0.00403799,0.00108698,0.00004789,0.00015477,-
 0.00002684,0.00034339,0.00021510,-0.00030837,0.00001322,-0.00001504,0.
 00001822,0.00000306,-0.00000067,-0.00000409,0.00000610,0.00000984,-0.0
 0000497,0.00000882,0.00000725,-0.00000637,0.00001178,0.00000710,0.0000
 1841,-0.00000879,0.00000013,-0.00000052,-0.00000298,-0.00000075,0.0000
 0084,0.00000466,-0.00000092,-0.00000425,0.00000437,0.00000502,-0.00000
 124,0.00000241,-0.00000529,-0.00000081,-0.00000651,-0.00000746,0.00000
 277,0.00000386,0.00001301,-0.00000369,0.00000331,0.00001608,-0.0000047
 2,-0.00000743,-0.00000291,-0.00000263,0.00001039,-0.00001684,-0.000011
 22,0.00000166,0.00001951,0.00000105,0.00002407,-0.00000725,-0.00000349
 ,0.00000099,-0.00001187,0.00000850,0.12087389,-0.21726785,-0.02526924,
 -0.00022433,0.00017659,-0.00025858,-0.00015081,0.00105620,-0.00150892,
 0.00041604,0.00050295,0.00038563,-0.00140104,0.00101598,-0.00026916,0.
 01400180,-0.01794045,-0.00362858,-0.13162780,0.23137343,0.00000923,0.0
 0001565,-0.00000283,-0.00002358,0.00000707,0.00000879,0.00004395,-0.00
 001177,0.00000939,0.00000779,0.00000926,-0.00004078,-0.00001505,-0.000
 00463,0.00001563,0.00000231,-0.00000376,-0.00001150,0.00001028,-0.0000
 2276,-0.00000300,-0.00000513,0.00000801,0.00000074,-0.00000084,-0.0000
 0036,-0.00000060,0.00000040,-0.00000789,0.00000037,-0.00000285,0.00000
 412,0.00000166,0.00000381,-0.00000945,-0.00000748,0.00000942,0.0000009
 8,-0.00000715,0.00000867,0.00000824,-0.00000347,-0.00000402,0.00000364
 ,0.00000232,0.00001317,-0.00000160,-0.00000812,-0.00001130,-0.00000376
 ,0.00001119,0.00000632,0.00003879,-0.00001199,0.00000247,-0.00001628,-
 0.00000349,-0.00001567,-0.00001776,0.00000009,0.00003935,0.00000601,-0
 .00000671,-0.00001969,-0.00000242,0.00001774,-0.00000475,-0.00000341,0
 .00000033,-0.00001049,-0.00000493,0.00000272,-0.00000044,-0.00000445,-
 0.00000056,-0.00000765,-0.00000955,0.00000220,-0.00001091,-0.00000020,
 0.00000876,-0.00000350,0.00000631,0.00000695,-0.00001995,0.00002493,0.
 00000577,0.00001247,-0.00000211,-0.00000469,-0.00000118,-0.00000058,0.
 00000088,-0.00000133,0.00000169,-0.00000054,-0.00000210,-0.00000179,0.
 00000115,0.00005133,-0.00000082,0.00000291,-0.00001247,0.00009540,-0.0
 0016614,0.00002296,-0.00001983,-0.00001253,0.00003078,-0.00002135,0.00
 001380,-0.00013679,-0.00120023,0.00190354,0.00082265,0.00002289,0.0000
 7367,-0.00020476,0.00000528,-0.00010897,0.00000429,0.00001149,0.000011
 22,-0.00007196,-0.00000604,0.00001936,-0.00000561,0.00002818,0.0000084
 5,-0.00001864,0.00001206,-0.00000314,-0.00001117,0.00000668,-0.0000098
 6,0.00001582,0.00003649,-0.00002834,0.01924949,-0.02763061,-0.00607076
 ,-0.00052361,0.00011476,0.00020022,-0.00008967,0.00091571,-0.00016655,
 -0.00966960,0.01254480,0.00071704,0.00010780,0.00005198,-0.00013154,0.
 00019316,-0.00027711,0.00023279,-0.00000124,-0.00001679,0.00000049,-0.
 00000577,-0.00000202,0.00001015,0.00000177,0.00000606,-0.00000553,0.00
 000702,0.00000889,0.00000284,0.00000146,-0.00002651,0.00002282,-0.0000
 0171,0.00000083,-0.00000716,-0.00000099,-0.00000278,-0.00000256,-0.000
 00424,-0.00000189,0.00000628,0.00000808,0.00000417,-0.00000505,0.00000
 314,-0.00000237,0.00000175,-0.00000667,-0.00000419,0.00000232,0.000002
 86,0.00000363,-0.00000058,-0.00000035,-0.00000217,0.00000933,-0.000007
 15,-0.00000131,0.00000070,0.00000554,0.00000784,0.00001536,-0.00001039
 ,-0.00000760,0.00000855,0.00001992,0.00002862,0.00000408,0.00000022,-0
 .00000624,-0.00000056,0.01964249,-0.02452133,-0.04991292,-0.00033430,0
 .00014193,0.00119639,0.00105094,-0.00109850,-0.00646453,0.00026755,0.0
 0052764,0.00039125,-0.00330312,-0.00082025,-0.00041462,-0.00863670,0.0
 1084722,0.00138926,-0.01846156,0.03024213,0.05728296\\-0.00000438,-0.0
 0001234,0.00001977,0.00001494,0.00001080,0.00000519,-0.00000037,-0.000
 00576,0.00000571,-0.00000439,0.00000162,-0.00000495,0.00000245,0.00000
 336,0.00000139,-0.00000083,0.00000103,-0.00000069,-0.00000100,-0.00000
 500,-0.00000301,0.00000090,0.00000363,0.00000265,0.00000058,0.00000175
 ,-0.00000196,-0.00000935,0.00000261,0.00000407,0.00001091,0.00000119,-
 0.00000482,-0.00000533,-0.00000441,-0.00000537,0.00000291,-0.00000061,
 0.00000134,-0.00000253,0.00000197,-0.00000292,-0.00000454,0.00000143,0
 .00000524,-0.00000746,0.00000214,0.00001868,0.00003087,0.00001222,-0.0
 0007780,-0.00003620,0.00000281,0.00002720,0.00000841,-0.00000202,-0.00
 000659,0.00001785,0.00000475,-0.00000320,-0.00000813,-0.00001916,0.000
 01048,0.00000551,-0.00000221,0.00000204,-0.00000239,-0.00000087,0.0000
 0005,-0.00000027,0.00000871,-0.00000275,0.00000199,-0.00000503,0.00000
 766,-0.00000022,-0.00000031,0.00000099,-0.00000025,0.00000027,0.000001
 63,-0.00000098,-0.00000098,0.00000486,-0.00000014,0.00000622,0.0000033
 2,0.00000289,-0.00000073,-0.00000067,-0.00000055,0.00000032,0.00000052
 ,0.00000010,0.00000044,0.00000052,-0.00000008,-0.00000038,0.00000048,-
 0.00002533,-0.00000214,-0.00001141,-0.00000599,0.00001895,0.00002598,0
 .00000196,-0.00000464,0.00000153,0.00001381,0.00001322,0.00000912,0.00
 000468,-0.00000490,-0.00000168,0.00000934,0.00000022,-0.00001060,0.000
 00468,0.00000177,0.00000583,0.00000368,-0.00000294,-0.00000291,-0.0000
 0116,0.00000420,0.00000050,0.00000420,-0.00000201,0.00000017,-0.000015
 09,-0.00000650,0.00000699,0.00000353,-0.00002613,0.00000315,0.00000401
 ,-0.00000837,0.00000300,-0.00000134,0.00000121,0.00000403,-0.00000937,
 -0.00000231,0.00000366,-0.00000072,0.00000165,-0.00000075,-0.00000195,
 -0.00000437,-0.00000400,-0.00000493,-0.00000539,0.00000056,-0.00000248
 ,-0.00000258,-0.00000177,-0.00000118,0.00000629,-0.00000649,-0.0000011
 6,-0.00000045,-0.00000031,0.00000536,0.00000146,-0.00000128,0.00000341
 ,-0.00000288,0.00000005,0.00000897,-0.00000262,-0.00000403,-0.00000036
 ,-0.00000141,-0.00000620,-0.00000006,-0.00000008,-0.00000078,-0.000002
 15,-0.00000308,-0.00000164,-0.00000154,0.00000608,0.00000242,0.0000027
 4,0.00000067,-0.00000209,0.00000435,-0.00000169,-0.00000444,0.00000117
 ,0.00000157,-0.00000290,0.00000090,0.00001047,0.00000604,-0.00000503,0
 .00000623,-0.00000959,-0.00000566,0.00000564,-0.00000516,0.00000164,0.
 00000203,0.00000066,0.00000064,0.00000212,-0.00000425,-0.00000364,0.00
 000145,-0.00000274,-0.00000234,-0.00000583,0.00000456,0.00000090,-0.00
 000103,-0.00000527,0.00000196,-0.00000276,-0.00000101,0.00000338,0.000
 00129,0.00000354,0.00000040,-0.00000090,-0.00000163,-0.00000261,0.0000
 0049,0.00000073,-0.00000251,0.00000052,0.00000137\\\@


 YE HAVE SOWN MUCH, AND BRING IN LITTLE.
 YE EAT, BUT YE HAVE NOT ENOUGH.
 YE DRINK, BUT YE ARE NOT FILLED WITH DRINK.
 YE CLOTHE YOU, BUT THERE IS NONE WARM.
 AND HE THAT EARNETH WAGES EARNETH WAGES TO PUT
 IT INTO A BAG WITH HOLES.
                                     HAGGAI I,6
 Job cpu time:       0 days 14 hours  2 minutes 26.7 seconds.
 File lengths (MBytes):  RWF=   5033 Int=      0 D2E=      0 Chk=     51 Scr=      1
 Normal termination of Gaussian 09 at Wed Feb 28 16:45:16 2024.
