 Entering Gaussian System, Link 0=g09
 Input=neopentyl-v5.com
 Output=neopentyl-v5.log
 Initial command:
 /cluster/apps/gaussian/g09/l1.exe "/cluster/scratch/sroediger/michael/Gau-194481.inp" -scrdir="/cluster/scratch/sroediger/michael/"
 Entering Link 1 = /cluster/apps/gaussian/g09/l1.exe PID=    194488.
  
 Copyright (c) 1988,1990,1992,1993,1995,1998,2003,2009,2013,
            Gaussian, Inc.  All Rights Reserved.
  
 This is part of the Gaussian(R) 09 program.  It is based on
 the Gaussian(R) 03 system (copyright 2003, Gaussian, Inc.),
 the Gaussian(R) 98 system (copyright 1998, Gaussian, Inc.),
 the Gaussian(R) 94 system (copyright 1995, Gaussian, Inc.),
 the Gaussian 92(TM) system (copyright 1992, Gaussian, Inc.),
 the Gaussian 90(TM) system (copyright 1990, Gaussian, Inc.),
 the Gaussian 88(TM) system (copyright 1988, Gaussian, Inc.),
 the Gaussian 86(TM) system (copyright 1986, Carnegie Mellon
 University), and the Gaussian 82(TM) system (copyright 1983,
 Carnegie Mellon University). Gaussian is a federally registered
 trademark of Gaussian, Inc.
  
 This software contains proprietary and confidential information,
 including trade secrets, belonging to Gaussian, Inc.
  
 This software is provided under written license and may be
 used, copied, transmitted, or stored only in accord with that
 written license.
  
 The following legend is applicable only to US Government
 contracts under FAR:
  
                    RESTRICTED RIGHTS LEGEND
  
 Use, reproduction and disclosure by the US Government is
 subject to restrictions as set forth in subparagraphs (a)
 and (c) of the Commercial Computer Software - Restricted
 Rights clause in FAR 52.227-19.
  
 Gaussian, Inc.
 340 Quinnipiac St., Bldg. 40, Wallingford CT 06492
  
  
 ---------------------------------------------------------------
 Warning -- This program may not be used in any manner that
 competes with the business of Gaussian, Inc. or will provide
 assistance to any competitor of Gaussian, Inc.  The licensee
 of this program is prohibited from giving any competitor of
 Gaussian, Inc. access to this program.  By using this program,
 the user acknowledges that Gaussian, Inc. is engaged in the
 business of creating and licensing software in the field of
 computational chemistry and represents and warrants to the
 licensee that it is not a competitor of Gaussian, Inc. and that
 it will not use this program in any manner prohibited above.
 ---------------------------------------------------------------
  

 Cite this work as:
 Gaussian 09, Revision D.01,
 M. J. Frisch, G. W. Trucks, H. B. Schlegel, G. E. Scuseria, 
 M. A. Robb, J. R. Cheeseman, G. Scalmani, V. Barone, B. Mennucci, 
 G. A. Petersson, H. Nakatsuji, M. Caricato, X. Li, H. P. Hratchian, 
 A. F. Izmaylov, J. Bloino, G. Zheng, J. L. Sonnenberg, M. Hada, 
 M. Ehara, K. Toyota, R. Fukuda, J. Hasegawa, M. Ishida, T. Nakajima, 
 Y. Honda, O. Kitao, H. Nakai, T. Vreven, J. A. Montgomery, Jr., 
 J. E. Peralta, F. Ogliaro, M. Bearpark, J. J. Heyd, E. Brothers, 
 K. N. Kudin, V. N. Staroverov, T. Keith, R. Kobayashi, J. Normand, 
 K. Raghavachari, A. Rendell, J. C. Burant, S. S. Iyengar, J. Tomasi, 
 M. Cossi, N. Rega, J. M. Millam, M. Klene, J. E. Knox, J. B. Cross, 
 V. Bakken, C. Adamo, J. Jaramillo, R. Gomperts, R. E. Stratmann, 
 O. Yazyev, A. J. Austin, R. Cammi, C. Pomelli, J. W. Ochterski, 
 R. L. Martin, K. Morokuma, V. G. Zakrzewski, G. A. Voth, 
 P. Salvador, J. J. Dannenberg, S. Dapprich, A. D. Daniels, 
 O. Farkas, J. B. Foresman, J. V. Ortiz, J. Cioslowski, 
 and D. J. Fox, Gaussian, Inc., Wallingford CT, 2013.
 
 ******************************************
 Gaussian 09:  ES64L-G09RevD.01 24-Apr-2013
                28-Feb-2024 
 ******************************************
 %nprocshared=16
 Will use up to   16 processors via shared memory.
 %mem=32GB
 %chk=neopentyl-v5.chk
 ----------------------------------------------------------------------
 #p opt freq=noraman geom=connectivity pbe1pbe genecp temperature=298 i
 ntegral(grid=ultrafine) empiricaldispersion=gd3bj
 ----------------------------------------------------------------------
 1/14=-1,18=20,19=15,26=4,38=1,57=2,112=298000/1,3;
 2/9=110,12=2,17=6,18=5,40=1/2;
 3/5=7,11=2,16=1,17=8,25=1,30=1,71=1,74=-13,75=-5,124=41/1,2,3;
 4//1;
 5/5=2,38=5/2;
 6/7=2,8=2,9=2,10=2,28=1/1;
 7//1,2,3,16;
 1/14=-1,18=20,19=15,26=4/3(2);
 2/9=110/2;
 99//99;
 2/9=110/2;
 3/5=7,6=1,11=2,16=1,17=8,25=1,30=1,71=1,74=-13,75=-5,82=7,124=41/1,2,3;
 4/5=5,16=3,69=1/1;
 5/5=2,38=5/2;
 7//1,2,3,16;
 1/14=-1,18=20,19=15,26=4/3(-5);
 2/9=110/2;
 6/7=2,8=2,9=2,10=2,19=2,28=1/1;
 99/9=1/99;
 Leave Link    1 at Wed Feb 28 14:20:19 2024, MaxMem=  4294967296 cpu:         1.4
 (Enter /cluster/apps/gaussian/g09/l101.exe)
 -----
 title
 -----
 Symbolic Z-matrix:
 Charge =  0 Multiplicity = 1
 Pd                   -0.15742  -0.40091  -0.64894 
 C                    -0.81181   1.47023  -0.7755 
 C                     0.00981   2.48678  -1.26783 
 H                     1.04514   2.27739  -1.52703 
 C                    -0.44379   3.78791  -1.42966 
 H                     0.2139    4.57262  -1.80837 
 C                    -1.76673   4.10819  -1.10985 
 C                    -2.60934   3.10528  -0.63505 
 H                    -3.64627   3.32986  -0.39504 
 C                    -2.14757   1.78565  -0.45967 
 C                    -3.10278   0.76938   0.03011 
 C                    -4.07901   1.04726   0.98977 
 C                    -5.00468   0.08865   1.39245 
 C                    -4.95328  -1.19011   0.84649 
 C                    -3.96287  -1.50579  -0.07898 
 C                    -3.04198  -0.54026  -0.49783 
 N                    -1.99098  -0.90122  -1.33752 
 S                    -2.26584  -1.25267  -2.89979 
 O                    -1.22882  -2.17747  -3.34862 
 O                    -3.68114  -1.54427  -3.10773 
 C                    -2.02745   0.28183  -3.84658 
 Cl                   -2.59472   1.72916  -3.01964 
 H                    -2.54815   0.16982  -4.80706 
 H                    -0.94183   0.35124  -3.99442 
 F                    -3.87888  -2.75112  -0.51103 
 F                    -5.81487  -2.11048   1.24666 
 F                    -5.91886   0.38376   2.30505 
 F                    -4.15388   2.24281   1.57665 
 O                    -2.14368   5.39195  -1.29434 
 C                    -3.5103    5.69092  -1.31989 
 H                    -4.02823   5.18428  -2.15389 
 H                    -3.59365   6.77627  -1.46009 
 H                    -4.01083   5.41259  -0.37531 
 P                     1.86058  -0.18393   0.49539 
 C                     2.94578  -1.71154   0.55738 
 C                     2.98656   1.10822  -0.33836 
 C                     1.55926   0.2182    2.32162 
 C                     2.47755  -2.9393   -0.24985 
 H                     3.02987  -2.01082   1.60401 
 H                     3.94578  -1.4464    0.22026 
 C                     4.47689   0.91031  -0.0317 
 C                     2.75535   0.94922  -1.84391 
 C                     2.59746   2.52766   0.07012 
 C                     0.68574   1.47203   2.43659 
 C                     0.72681  -0.95688   2.84595 
 C                     2.83174   0.38246   3.1488 
 C                     3.11372  -2.97552  -1.64182 
 C                     2.89866  -4.19674   0.52435 
 C                     0.96088  -2.93365  -0.40178 
 H                     4.91366   0.10472  -0.61744 
 H                     5.00755   1.82132  -0.30333 
 H                     4.6591    0.72209   1.02311 
 H                     3.33649   1.695    -2.38403 
 H                     3.06908  -0.03222  -2.19199 
 H                     1.70506   1.09985  -2.09396 
 H                     2.9078    2.74542   1.08834 
 H                     1.52756   2.67969  -0.0313 
 H                     3.09886   3.23611  -0.58782 
 H                    -0.02987   1.52371   1.61728 
 H                     0.13063   1.44642   3.37242 
 H                     1.27596   2.38176   2.42806 
 H                     0.43998  -0.77331   3.87979 
 H                    -0.1922   -1.05374   2.25873 
 H                     1.27066  -1.89861   2.8215 
 H                     2.55922   0.5296    4.19296 
 H                     3.47417  -0.49404   3.094 
 H                     3.40051   1.25205   2.83036 
 H                     4.19963  -2.98538  -1.56934 
 H                     2.79514  -2.1072   -2.24343 
 H                     2.8057   -3.87783  -2.16744 
 H                     2.45578  -4.20805   1.51781 
 H                     2.57248  -5.09007  -0.00204 
 H                     3.98003  -4.24112   0.63107 
 H                     0.62583  -3.77634  -1.005 
 H                     0.45412  -2.97554   0.56049 
 H                     0.6448   -1.99734  -0.9173 
 
 NAtoms=     76 NQM=       76 NQMF=       0 NMMI=      0 NMMIF=      0
                NMic=       0 NMicF=      0.
                    Isotopes and Nuclear Properties:
 (Nuclear quadrupole moments (NQMom) in fm**2, nuclear magnetic moments (NMagM)
  in nuclear magnetons)

  Atom         1           2           3           4           5           6           7           8           9          10
 IAtWgt=         106          12          12           1          12           1          12          12           1          12
 AtmWgt= 105.9032000  12.0000000  12.0000000   1.0078250  12.0000000   1.0078250  12.0000000  12.0000000   1.0078250  12.0000000
 NucSpn=           0           0           0           1           0           1           0           0           1           0
 AtZEff=   0.0000000   0.0000000   0.0000000   0.0000000   0.0000000   0.0000000   0.0000000   0.0000000   0.0000000   0.0000000
 NQMom=    0.0000000   0.0000000   0.0000000   0.0000000   0.0000000   0.0000000   0.0000000   0.0000000   0.0000000   0.0000000
 NMagM=    0.0000000   0.0000000   0.0000000   2.7928460   0.0000000   2.7928460   0.0000000   0.0000000   2.7928460   0.0000000
 AtZNuc=  46.0000000   6.0000000   6.0000000   1.0000000   6.0000000   1.0000000   6.0000000   6.0000000   1.0000000   6.0000000

  Atom        11          12          13          14          15          16          17          18          19          20
 IAtWgt=          12          12          12          12          12          12          14          32          16          16
 AtmWgt=  12.0000000  12.0000000  12.0000000  12.0000000  12.0000000  12.0000000  14.0030740  31.9720718  15.9949146  15.9949146
 NucSpn=           0           0           0           0           0           0           2           0           0           0
 AtZEff=   0.0000000   0.0000000   0.0000000   0.0000000   0.0000000   0.0000000   0.0000000   0.0000000   0.0000000   0.0000000
 NQMom=    0.0000000   0.0000000   0.0000000   0.0000000   0.0000000   0.0000000   2.0440000   0.0000000   0.0000000   0.0000000
 NMagM=    0.0000000   0.0000000   0.0000000   0.0000000   0.0000000   0.0000000   0.4037610   0.0000000   0.0000000   0.0000000
 AtZNuc=   6.0000000   6.0000000   6.0000000   6.0000000   6.0000000   6.0000000   7.0000000  16.0000000   8.0000000   8.0000000

  Atom        21          22          23          24          25          26          27          28          29          30
 IAtWgt=          12          35           1           1          19          19          19          19          16          12
 AtmWgt=  12.0000000  34.9688527   1.0078250   1.0078250  18.9984033  18.9984033  18.9984033  18.9984033  15.9949146  12.0000000
 NucSpn=           0           3           1           1           1           1           1           1           0           0
 AtZEff=   0.0000000   0.0000000   0.0000000   0.0000000   0.0000000   0.0000000   0.0000000   0.0000000   0.0000000   0.0000000
 NQMom=    0.0000000  -8.1650000   0.0000000   0.0000000   0.0000000   0.0000000   0.0000000   0.0000000   0.0000000   0.0000000
 NMagM=    0.0000000   0.8218740   2.7928460   2.7928460   2.6288670   2.6288670   2.6288670   2.6288670   0.0000000   0.0000000
 AtZNuc=   6.0000000  17.0000000   1.0000000   1.0000000   9.0000000   9.0000000   9.0000000   9.0000000   8.0000000   6.0000000

  Atom        31          32          33          34          35          36          37          38          39          40
 IAtWgt=           1           1           1          31          12          12          12          12           1           1
 AtmWgt=   1.0078250   1.0078250   1.0078250  30.9737634  12.0000000  12.0000000  12.0000000  12.0000000   1.0078250   1.0078250
 NucSpn=           1           1           1           1           0           0           0           0           1           1
 AtZEff=   0.0000000   0.0000000   0.0000000   0.0000000   0.0000000   0.0000000   0.0000000   0.0000000   0.0000000   0.0000000
 NQMom=    0.0000000   0.0000000   0.0000000   0.0000000   0.0000000   0.0000000   0.0000000   0.0000000   0.0000000   0.0000000
 NMagM=    2.7928460   2.7928460   2.7928460   1.1316000   0.0000000   0.0000000   0.0000000   0.0000000   2.7928460   2.7928460
 AtZNuc=   1.0000000   1.0000000   1.0000000  15.0000000   6.0000000   6.0000000   6.0000000   6.0000000   1.0000000   1.0000000

  Atom        41          42          43          44          45          46          47          48          49          50
 IAtWgt=          12          12          12          12          12          12          12          12          12           1
 AtmWgt=  12.0000000  12.0000000  12.0000000  12.0000000  12.0000000  12.0000000  12.0000000  12.0000000  12.0000000   1.0078250
 NucSpn=           0           0           0           0           0           0           0           0           0           1
 AtZEff=   0.0000000   0.0000000   0.0000000   0.0000000   0.0000000   0.0000000   0.0000000   0.0000000   0.0000000   0.0000000
 NQMom=    0.0000000   0.0000000   0.0000000   0.0000000   0.0000000   0.0000000   0.0000000   0.0000000   0.0000000   0.0000000
 NMagM=    0.0000000   0.0000000   0.0000000   0.0000000   0.0000000   0.0000000   0.0000000   0.0000000   0.0000000   2.7928460
 AtZNuc=   6.0000000   6.0000000   6.0000000   6.0000000   6.0000000   6.0000000   6.0000000   6.0000000   6.0000000   1.0000000

  Atom        51          52          53          54          55          56          57          58          59          60
 IAtWgt=           1           1           1           1           1           1           1           1           1           1
 AtmWgt=   1.0078250   1.0078250   1.0078250   1.0078250   1.0078250   1.0078250   1.0078250   1.0078250   1.0078250   1.0078250
 NucSpn=           1           1           1           1           1           1           1           1           1           1
 AtZEff=   0.0000000   0.0000000   0.0000000   0.0000000   0.0000000   0.0000000   0.0000000   0.0000000   0.0000000   0.0000000
 NQMom=    0.0000000   0.0000000   0.0000000   0.0000000   0.0000000   0.0000000   0.0000000   0.0000000   0.0000000   0.0000000
 NMagM=    2.7928460   2.7928460   2.7928460   2.7928460   2.7928460   2.7928460   2.7928460   2.7928460   2.7928460   2.7928460
 AtZNuc=   1.0000000   1.0000000   1.0000000   1.0000000   1.0000000   1.0000000   1.0000000   1.0000000   1.0000000   1.0000000

  Atom        61          62          63          64          65          66          67          68          69          70
 IAtWgt=           1           1           1           1           1           1           1           1           1           1
 AtmWgt=   1.0078250   1.0078250   1.0078250   1.0078250   1.0078250   1.0078250   1.0078250   1.0078250   1.0078250   1.0078250
 NucSpn=           1           1           1           1           1           1           1           1           1           1
 AtZEff=   0.0000000   0.0000000   0.0000000   0.0000000   0.0000000   0.0000000   0.0000000   0.0000000   0.0000000   0.0000000
 NQMom=    0.0000000   0.0000000   0.0000000   0.0000000   0.0000000   0.0000000   0.0000000   0.0000000   0.0000000   0.0000000
 NMagM=    2.7928460   2.7928460   2.7928460   2.7928460   2.7928460   2.7928460   2.7928460   2.7928460   2.7928460   2.7928460
 AtZNuc=   1.0000000   1.0000000   1.0000000   1.0000000   1.0000000   1.0000000   1.0000000   1.0000000   1.0000000   1.0000000

  Atom        71          72          73          74          75          76
 IAtWgt=           1           1           1           1           1           1
 AtmWgt=   1.0078250   1.0078250   1.0078250   1.0078250   1.0078250   1.0078250
 NucSpn=           1           1           1           1           1           1
 AtZEff=   0.0000000   0.0000000   0.0000000   0.0000000   0.0000000   0.0000000
 NQMom=    0.0000000   0.0000000   0.0000000   0.0000000   0.0000000   0.0000000
 NMagM=    2.7928460   2.7928460   2.7928460   2.7928460   2.7928460   2.7928460
 AtZNuc=   1.0000000   1.0000000   1.0000000   1.0000000   1.0000000   1.0000000
 Leave Link  101 at Wed Feb 28 14:20:20 2024, MaxMem=  4294967296 cpu:         3.1
 (Enter /cluster/apps/gaussian/g09/l103.exe)

 GradGradGradGradGradGradGradGradGradGradGradGradGradGradGradGradGradGrad
 Berny optimization.
 Initialization pass.
                           ----------------------------
                           !    Initial Parameters    !
                           ! (Angstroms and Degrees)  !
 --------------------------                            --------------------------
 ! Name  Definition              Value          Derivative Info.                !
 --------------------------------------------------------------------------------
 ! R1    R(1,2)                  1.9863         estimate D2E/DX2                !
 ! R2    R(1,17)                 2.0215         estimate D2E/DX2                !
 ! R3    R(1,34)                 2.33           estimate D2E/DX2                !
 ! R4    R(2,3)                  1.3967         estimate D2E/DX2                !
 ! R5    R(2,10)                 1.4084         estimate D2E/DX2                !
 ! R6    R(3,4)                  1.0876         estimate D2E/DX2                !
 ! R7    R(3,5)                  1.3874         estimate D2E/DX2                !
 ! R8    R(5,6)                  1.0917         estimate D2E/DX2                !
 ! R9    R(5,7)                  1.3982         estimate D2E/DX2                !
 ! R10   R(7,8)                  1.3933         estimate D2E/DX2                !
 ! R11   R(7,29)                 1.3506         estimate D2E/DX2                !
 ! R12   R(8,9)                  1.0878         estimate D2E/DX2                !
 ! R13   R(8,10)                 1.409          estimate D2E/DX2                !
 ! R14   R(10,11)                1.4782         estimate D2E/DX2                !
 ! R15   R(11,12)                1.3969         estimate D2E/DX2                !
 ! R16   R(11,16)                1.4134         estimate D2E/DX2                !
 ! R17   R(12,13)                1.3921         estimate D2E/DX2                !
 ! R18   R(12,28)                1.3339         estimate D2E/DX2                !
 ! R19   R(13,14)                1.3914         estimate D2E/DX2                !
 ! R20   R(13,27)                1.325          estimate D2E/DX2                !
 ! R21   R(14,15)                1.3918         estimate D2E/DX2                !
 ! R22   R(14,26)                1.3227         estimate D2E/DX2                !
 ! R23   R(15,16)                1.3985         estimate D2E/DX2                !
 ! R24   R(15,25)                1.3208         estimate D2E/DX2                !
 ! R25   R(16,17)                1.3928         estimate D2E/DX2                !
 ! R26   R(17,18)                1.6247         estimate D2E/DX2                !
 ! R27   R(18,19)                1.4602         estimate D2E/DX2                !
 ! R28   R(18,20)                1.4599         estimate D2E/DX2                !
 ! R29   R(18,21)                1.8188         estimate D2E/DX2                !
 ! R30   R(21,22)                1.7608         estimate D2E/DX2                !
 ! R31   R(21,23)                1.0983         estimate D2E/DX2                !
 ! R32   R(21,24)                1.0978         estimate D2E/DX2                !
 ! R33   R(29,30)                1.3992         estimate D2E/DX2                !
 ! R34   R(30,31)                1.1048         estimate D2E/DX2                !
 ! R35   R(30,32)                1.0975         estimate D2E/DX2                !
 ! R36   R(30,33)                1.1046         estimate D2E/DX2                !
 ! R37   R(34,35)                1.8749         estimate D2E/DX2                !
 ! R38   R(34,36)                1.9059         estimate D2E/DX2                !
 ! R39   R(34,37)                1.8941         estimate D2E/DX2                !
 ! R40   R(35,38)                1.5422         estimate D2E/DX2                !
 ! R41   R(35,39)                1.0918         estimate D2E/DX2                !
 ! R42   R(35,40)                1.0881         estimate D2E/DX2                !
 ! R43   R(36,41)                1.5344         estimate D2E/DX2                !
 ! R44   R(36,42)                1.5315         estimate D2E/DX2                !
 ! R45   R(36,43)                1.5274         estimate D2E/DX2                !
 ! R46   R(37,44)                1.5324         estimate D2E/DX2                !
 ! R47   R(37,45)                1.5326         estimate D2E/DX2                !
 ! R48   R(37,46)                1.5266         estimate D2E/DX2                !
 ! R49   R(38,47)                1.5309         estimate D2E/DX2                !
 ! R50   R(38,48)                1.5355         estimate D2E/DX2                !
 ! R51   R(38,49)                1.5243         estimate D2E/DX2                !
 ! R52   R(41,50)                1.0876         estimate D2E/DX2                !
 ! R53   R(41,51)                1.0887         estimate D2E/DX2                !
 ! R54   R(41,52)                1.0869         estimate D2E/DX2                !
 ! R55   R(42,53)                1.0889         estimate D2E/DX2                !
 ! R56   R(42,54)                1.0876         estimate D2E/DX2                !
 ! R57   R(42,55)                1.0901         estimate D2E/DX2                !
 ! R58   R(43,56)                1.0865         estimate D2E/DX2                !
 ! R59   R(43,57)                1.0854         estimate D2E/DX2                !
 ! R60   R(43,58)                1.0891         estimate D2E/DX2                !
 ! R61   R(44,59)                1.0891         estimate D2E/DX2                !
 ! R62   R(44,60)                1.0884         estimate D2E/DX2                !
 ! R63   R(44,61)                1.0845         estimate D2E/DX2                !
 ! R64   R(45,62)                1.0885         estimate D2E/DX2                !
 ! R65   R(45,63)                1.0949         estimate D2E/DX2                !
 ! R66   R(45,64)                1.0878         estimate D2E/DX2                !
 ! R67   R(46,65)                1.0891         estimate D2E/DX2                !
 ! R68   R(46,66)                1.0881         estimate D2E/DX2                !
 ! R69   R(46,67)                1.0868         estimate D2E/DX2                !
 ! R70   R(47,68)                1.0884         estimate D2E/DX2                !
 ! R71   R(47,69)                1.1034         estimate D2E/DX2                !
 ! R72   R(47,70)                1.0887         estimate D2E/DX2                !
 ! R73   R(48,71)                1.0878         estimate D2E/DX2                !
 ! R74   R(48,72)                1.087          estimate D2E/DX2                !
 ! R75   R(48,73)                1.0875         estimate D2E/DX2                !
 ! R76   R(49,74)                1.0892         estimate D2E/DX2                !
 ! R77   R(49,75)                1.0884         estimate D2E/DX2                !
 ! R78   R(49,76)                1.1146         estimate D2E/DX2                !
 ! A1    A(2,1,17)              84.9871         estimate D2E/DX2                !
 ! A2    A(2,1,34)             103.2324         estimate D2E/DX2                !
 ! A3    A(1,2,3)              120.9493         estimate D2E/DX2                !
 ! A4    A(1,2,10)             120.6073         estimate D2E/DX2                !
 ! A5    A(3,2,10)             118.2922         estimate D2E/DX2                !
 ! A6    A(2,3,4)              120.2547         estimate D2E/DX2                !
 ! A7    A(2,3,5)              122.0968         estimate D2E/DX2                !
 ! A8    A(4,3,5)              117.6438         estimate D2E/DX2                !
 ! A9    A(3,5,6)              121.1723         estimate D2E/DX2                !
 ! A10   A(3,5,7)              119.8332         estimate D2E/DX2                !
 ! A11   A(6,5,7)              118.994          estimate D2E/DX2                !
 ! A12   A(5,7,8)              119.0297         estimate D2E/DX2                !
 ! A13   A(5,7,29)             116.7784         estimate D2E/DX2                !
 ! A14   A(8,7,29)             124.1909         estimate D2E/DX2                !
 ! A15   A(7,8,9)              120.203          estimate D2E/DX2                !
 ! A16   A(7,8,10)             121.2225         estimate D2E/DX2                !
 ! A17   A(9,8,10)             118.5741         estimate D2E/DX2                !
 ! A18   A(2,10,8)             119.5154         estimate D2E/DX2                !
 ! A19   A(2,10,11)            122.2224         estimate D2E/DX2                !
 ! A20   A(8,10,11)            118.2517         estimate D2E/DX2                !
 ! A21   A(10,11,12)           122.8518         estimate D2E/DX2                !
 ! A22   A(10,11,16)           119.0448         estimate D2E/DX2                !
 ! A23   A(12,11,16)           118.1008         estimate D2E/DX2                !
 ! A24   A(11,12,13)           121.7659         estimate D2E/DX2                !
 ! A25   A(11,12,28)           121.3179         estimate D2E/DX2                !
 ! A26   A(13,12,28)           116.9098         estimate D2E/DX2                !
 ! A27   A(12,13,14)           119.6567         estimate D2E/DX2                !
 ! A28   A(12,13,27)           120.3065         estimate D2E/DX2                !
 ! A29   A(14,13,27)           120.0295         estimate D2E/DX2                !
 ! A30   A(13,14,15)           119.7137         estimate D2E/DX2                !
 ! A31   A(13,14,26)           119.7834         estimate D2E/DX2                !
 ! A32   A(15,14,26)           120.4565         estimate D2E/DX2                !
 ! A33   A(14,15,16)           120.7407         estimate D2E/DX2                !
 ! A34   A(14,15,25)           118.4649         estimate D2E/DX2                !
 ! A35   A(16,15,25)           120.7377         estimate D2E/DX2                !
 ! A36   A(11,16,15)           119.9706         estimate D2E/DX2                !
 ! A37   A(11,16,17)           119.8536         estimate D2E/DX2                !
 ! A38   A(15,16,17)           119.9025         estimate D2E/DX2                !
 ! A39   A(1,17,16)            114.5155         estimate D2E/DX2                !
 ! A40   A(1,17,18)            122.311          estimate D2E/DX2                !
 ! A41   A(16,17,18)           120.537          estimate D2E/DX2                !
 ! A42   A(17,18,19)           108.2051         estimate D2E/DX2                !
 ! A43   A(17,18,20)           110.131          estimate D2E/DX2                !
 ! A44   A(17,18,21)           107.2101         estimate D2E/DX2                !
 ! A45   A(19,18,20)           121.2126         estimate D2E/DX2                !
 ! A46   A(19,18,21)           106.3353         estimate D2E/DX2                !
 ! A47   A(20,18,21)           102.7933         estimate D2E/DX2                !
 ! A48   A(18,21,22)           114.0039         estimate D2E/DX2                !
 ! A49   A(18,21,23)           107.8825         estimate D2E/DX2                !
 ! A50   A(18,21,24)           104.6587         estimate D2E/DX2                !
 ! A51   A(22,21,23)           109.9871         estimate D2E/DX2                !
 ! A52   A(22,21,24)           109.2603         estimate D2E/DX2                !
 ! A53   A(23,21,24)           110.9469         estimate D2E/DX2                !
 ! A54   A(7,29,30)            118.5673         estimate D2E/DX2                !
 ! A55   A(29,30,31)           111.944          estimate D2E/DX2                !
 ! A56   A(29,30,32)           106.7274         estimate D2E/DX2                !
 ! A57   A(29,30,33)           111.9086         estimate D2E/DX2                !
 ! A58   A(31,30,32)           108.7516         estimate D2E/DX2                !
 ! A59   A(31,30,33)           108.5145         estimate D2E/DX2                !
 ! A60   A(32,30,33)           108.9042         estimate D2E/DX2                !
 ! A61   A(1,34,35)            116.2105         estimate D2E/DX2                !
 ! A62   A(1,34,36)            111.0975         estimate D2E/DX2                !
 ! A63   A(1,34,37)            110.8254         estimate D2E/DX2                !
 ! A64   A(35,34,36)           102.9972         estimate D2E/DX2                !
 ! A65   A(35,34,37)           103.4848         estimate D2E/DX2                !
 ! A66   A(36,34,37)           111.828          estimate D2E/DX2                !
 ! A67   A(34,35,38)           117.1055         estimate D2E/DX2                !
 ! A68   A(34,35,39)           107.4347         estimate D2E/DX2                !
 ! A69   A(34,35,40)           108.8547         estimate D2E/DX2                !
 ! A70   A(38,35,39)           107.8742         estimate D2E/DX2                !
 ! A71   A(38,35,40)           108.1109         estimate D2E/DX2                !
 ! A72   A(39,35,40)           107.0385         estimate D2E/DX2                !
 ! A73   A(34,36,41)           113.5123         estimate D2E/DX2                !
 ! A74   A(34,36,42)           105.6918         estimate D2E/DX2                !
 ! A75   A(34,36,43)           111.2563         estimate D2E/DX2                !
 ! A76   A(41,36,42)           109.252          estimate D2E/DX2                !
 ! A77   A(41,36,43)           108.2911         estimate D2E/DX2                !
 ! A78   A(42,36,43)           108.7189         estimate D2E/DX2                !
 ! A79   A(34,37,44)           109.6775         estimate D2E/DX2                !
 ! A80   A(34,37,45)           104.6847         estimate D2E/DX2                !
 ! A81   A(34,37,46)           114.3735         estimate D2E/DX2                !
 ! A82   A(44,37,45)           106.9811         estimate D2E/DX2                !
 ! A83   A(44,37,46)           110.2704         estimate D2E/DX2                !
 ! A84   A(45,37,46)           110.4803         estimate D2E/DX2                !
 ! A85   A(35,38,47)           111.6298         estimate D2E/DX2                !
 ! A86   A(35,38,48)           107.744          estimate D2E/DX2                !
 ! A87   A(35,38,49)           110.5685         estimate D2E/DX2                !
 ! A88   A(47,38,48)           108.972          estimate D2E/DX2                !
 ! A89   A(47,38,49)           108.8413         estimate D2E/DX2                !
 ! A90   A(48,38,49)           109.0358         estimate D2E/DX2                !
 ! A91   A(36,41,50)           112.2078         estimate D2E/DX2                !
 ! A92   A(36,41,51)           108.3987         estimate D2E/DX2                !
 ! A93   A(36,41,52)           112.2804         estimate D2E/DX2                !
 ! A94   A(50,41,51)           106.8399         estimate D2E/DX2                !
 ! A95   A(50,41,52)           109.0919         estimate D2E/DX2                !
 ! A96   A(51,41,52)           107.7789         estimate D2E/DX2                !
 ! A97   A(36,42,53)           109.6303         estimate D2E/DX2                !
 ! A98   A(36,42,54)           111.3937         estimate D2E/DX2                !
 ! A99   A(36,42,55)           110.8921         estimate D2E/DX2                !
 ! A100  A(53,42,54)           107.7798         estimate D2E/DX2                !
 ! A101  A(53,42,55)           107.8055         estimate D2E/DX2                !
 ! A102  A(54,42,55)           109.2219         estimate D2E/DX2                !
 ! A103  A(36,43,56)           111.3527         estimate D2E/DX2                !
 ! A104  A(36,43,57)           110.8719         estimate D2E/DX2                !
 ! A105  A(36,43,58)           109.0052         estimate D2E/DX2                !
 ! A106  A(56,43,57)           109.9411         estimate D2E/DX2                !
 ! A107  A(56,43,58)           107.7138         estimate D2E/DX2                !
 ! A108  A(57,43,58)           107.8329         estimate D2E/DX2                !
 ! A109  A(37,44,59)           110.9123         estimate D2E/DX2                !
 ! A110  A(37,44,60)           109.6328         estimate D2E/DX2                !
 ! A111  A(37,44,61)           112.058          estimate D2E/DX2                !
 ! A112  A(59,44,60)           108.2307         estimate D2E/DX2                !
 ! A113  A(59,44,61)           108.174          estimate D2E/DX2                !
 ! A114  A(60,44,61)           107.7031         estimate D2E/DX2                !
 ! A115  A(37,45,62)           109.8022         estimate D2E/DX2                !
 ! A116  A(37,45,63)           109.8926         estimate D2E/DX2                !
 ! A117  A(37,45,64)           112.6153         estimate D2E/DX2                !
 ! A118  A(62,45,63)           107.6467         estimate D2E/DX2                !
 ! A119  A(62,45,64)           107.4042         estimate D2E/DX2                !
 ! A120  A(63,45,64)           109.3303         estimate D2E/DX2                !
 ! A121  A(37,46,65)           108.9933         estimate D2E/DX2                !
 ! A122  A(37,46,66)           112.2208         estimate D2E/DX2                !
 ! A123  A(37,46,67)           111.3195         estimate D2E/DX2                !
 ! A124  A(65,46,66)           107.7489         estimate D2E/DX2                !
 ! A125  A(65,46,67)           107.6836         estimate D2E/DX2                !
 ! A126  A(66,46,67)           108.711          estimate D2E/DX2                !
 ! A127  A(38,47,68)           110.7492         estimate D2E/DX2                !
 ! A128  A(38,47,69)           110.9265         estimate D2E/DX2                !
 ! A129  A(38,47,70)           109.9387         estimate D2E/DX2                !
 ! A130  A(68,47,69)           109.3612         estimate D2E/DX2                !
 ! A131  A(68,47,70)           107.8738         estimate D2E/DX2                !
 ! A132  A(69,47,70)           107.897          estimate D2E/DX2                !
 ! A133  A(38,48,71)           110.9368         estimate D2E/DX2                !
 ! A134  A(38,48,72)           110.2763         estimate D2E/DX2                !
 ! A135  A(38,48,73)           110.8291         estimate D2E/DX2                !
 ! A136  A(71,48,72)           108.1535         estimate D2E/DX2                !
 ! A137  A(71,48,73)           108.3486         estimate D2E/DX2                !
 ! A138  A(72,48,73)           108.2014         estimate D2E/DX2                !
 ! A139  A(38,49,74)           111.0035         estimate D2E/DX2                !
 ! A140  A(38,49,75)           112.0266         estimate D2E/DX2                !
 ! A141  A(38,49,76)           109.3525         estimate D2E/DX2                !
 ! A142  A(74,49,75)           108.4613         estimate D2E/DX2                !
 ! A143  A(74,49,76)           107.8512         estimate D2E/DX2                !
 ! A144  A(75,49,76)           108.0122         estimate D2E/DX2                !
 ! A145  L(17,1,34,2,-1)       188.2195         estimate D2E/DX2                !
 ! A146  L(17,1,34,2,-2)       170.3201         estimate D2E/DX2                !
 ! D1    D(17,1,2,3)          -138.3683         estimate D2E/DX2                !
 ! D2    D(17,1,2,10)           37.0849         estimate D2E/DX2                !
 ! D3    D(34,1,2,3)            51.3116         estimate D2E/DX2                !
 ! D4    D(34,1,2,10)         -133.2352         estimate D2E/DX2                !
 ! D5    D(2,1,17,16)          -62.5327         estimate D2E/DX2                !
 ! D6    D(2,1,17,18)           99.1219         estimate D2E/DX2                !
 ! D7    D(16,17,34,35)        124.3268         estimate D2E/DX2                !
 ! D8    D(16,17,34,36)       -116.16           estimate D2E/DX2                !
 ! D9    D(16,17,34,37)         10.6127         estimate D2E/DX2                !
 ! D10   D(18,17,34,35)        -67.6817         estimate D2E/DX2                !
 ! D11   D(18,17,34,36)         51.8315         estimate D2E/DX2                !
 ! D12   D(18,17,34,37)        178.6041         estimate D2E/DX2                !
 ! D13   D(2,1,34,35)         -169.686          estimate D2E/DX2                !
 ! D14   D(2,1,34,36)          -52.3877         estimate D2E/DX2                !
 ! D15   D(2,1,34,37)           72.5822         estimate D2E/DX2                !
 ! D16   D(1,2,3,4)             -4.1158         estimate D2E/DX2                !
 ! D17   D(1,2,3,5)            176.6901         estimate D2E/DX2                !
 ! D18   D(10,2,3,4)          -179.6718         estimate D2E/DX2                !
 ! D19   D(10,2,3,5)             1.1341         estimate D2E/DX2                !
 ! D20   D(1,2,10,8)          -176.1613         estimate D2E/DX2                !
 ! D21   D(1,2,10,11)            2.6384         estimate D2E/DX2                !
 ! D22   D(3,2,10,8)            -0.5896         estimate D2E/DX2                !
 ! D23   D(3,2,10,11)          178.2101         estimate D2E/DX2                !
 ! D24   D(2,3,5,6)            179.5057         estimate D2E/DX2                !
 ! D25   D(2,3,5,7)             -0.7583         estimate D2E/DX2                !
 ! D26   D(4,3,5,6)              0.2915         estimate D2E/DX2                !
 ! D27   D(4,3,5,7)           -179.9725         estimate D2E/DX2                !
 ! D28   D(3,5,7,8)             -0.1739         estimate D2E/DX2                !
 ! D29   D(3,5,7,29)          -179.828          estimate D2E/DX2                !
 ! D30   D(6,5,7,8)            179.5679         estimate D2E/DX2                !
 ! D31   D(6,5,7,29)            -0.0862         estimate D2E/DX2                !
 ! D32   D(5,7,8,9)           -179.0511         estimate D2E/DX2                !
 ! D33   D(5,7,8,10)             0.7003         estimate D2E/DX2                !
 ! D34   D(29,7,8,9)             0.5755         estimate D2E/DX2                !
 ! D35   D(29,7,8,10)         -179.673          estimate D2E/DX2                !
 ! D36   D(5,7,29,30)          163.94           estimate D2E/DX2                !
 ! D37   D(8,7,29,30)          -15.6944         estimate D2E/DX2                !
 ! D38   D(7,8,10,2)            -0.313          estimate D2E/DX2                !
 ! D39   D(7,8,10,11)         -179.1602         estimate D2E/DX2                !
 ! D40   D(9,8,10,2)           179.4424         estimate D2E/DX2                !
 ! D41   D(9,8,10,11)            0.5952         estimate D2E/DX2                !
 ! D42   D(2,10,11,12)         143.6258         estimate D2E/DX2                !
 ! D43   D(2,10,11,16)         -36.9628         estimate D2E/DX2                !
 ! D44   D(8,10,11,12)         -37.56           estimate D2E/DX2                !
 ! D45   D(8,10,11,16)         141.8514         estimate D2E/DX2                !
 ! D46   D(10,11,12,13)        177.1526         estimate D2E/DX2                !
 ! D47   D(10,11,12,28)         -3.7866         estimate D2E/DX2                !
 ! D48   D(16,11,12,13)         -2.2641         estimate D2E/DX2                !
 ! D49   D(16,11,12,28)        176.7968         estimate D2E/DX2                !
 ! D50   D(10,11,16,15)       -178.0117         estimate D2E/DX2                !
 ! D51   D(10,11,16,17)          7.9983         estimate D2E/DX2                !
 ! D52   D(12,11,16,15)          1.4278         estimate D2E/DX2                !
 ! D53   D(12,11,16,17)       -172.5623         estimate D2E/DX2                !
 ! D54   D(11,12,13,14)          1.0012         estimate D2E/DX2                !
 ! D55   D(11,12,13,27)       -179.98           estimate D2E/DX2                !
 ! D56   D(28,12,13,14)       -178.099          estimate D2E/DX2                !
 ! D57   D(28,12,13,27)          0.9197         estimate D2E/DX2                !
 ! D58   D(12,13,14,15)          1.134          estimate D2E/DX2                !
 ! D59   D(12,13,14,26)        178.6683         estimate D2E/DX2                !
 ! D60   D(27,13,14,15)       -177.8875         estimate D2E/DX2                !
 ! D61   D(27,13,14,26)         -0.3532         estimate D2E/DX2                !
 ! D62   D(13,14,15,16)         -1.9481         estimate D2E/DX2                !
 ! D63   D(13,14,15,25)        175.3331         estimate D2E/DX2                !
 ! D64   D(26,14,15,16)       -179.4655         estimate D2E/DX2                !
 ! D65   D(26,14,15,25)         -2.1842         estimate D2E/DX2                !
 ! D66   D(14,15,16,11)          0.646          estimate D2E/DX2                !
 ! D67   D(14,15,16,17)        174.6331         estimate D2E/DX2                !
 ! D68   D(25,15,16,11)       -176.5732         estimate D2E/DX2                !
 ! D69   D(25,15,16,17)         -2.5862         estimate D2E/DX2                !
 ! D70   D(11,16,17,1)          48.3811         estimate D2E/DX2                !
 ! D71   D(11,16,17,18)       -113.6292         estimate D2E/DX2                !
 ! D72   D(15,16,17,1)        -125.6131         estimate D2E/DX2                !
 ! D73   D(15,16,17,18)         72.3766         estimate D2E/DX2                !
 ! D74   D(1,17,18,19)          46.7875         estimate D2E/DX2                !
 ! D75   D(1,17,18,20)        -178.6592         estimate D2E/DX2                !
 ! D76   D(1,17,18,21)         -67.532          estimate D2E/DX2                !
 ! D77   D(16,17,18,19)       -152.6322         estimate D2E/DX2                !
 ! D78   D(16,17,18,20)        -18.0789         estimate D2E/DX2                !
 ! D79   D(16,17,18,21)         93.0483         estimate D2E/DX2                !
 ! D80   D(17,18,21,22)        -37.18           estimate D2E/DX2                !
 ! D81   D(17,18,21,23)       -159.649          estimate D2E/DX2                !
 ! D82   D(17,18,21,24)         82.1421         estimate D2E/DX2                !
 ! D83   D(19,18,21,22)       -152.7495         estimate D2E/DX2                !
 ! D84   D(19,18,21,23)         84.7815         estimate D2E/DX2                !
 ! D85   D(19,18,21,24)        -33.4274         estimate D2E/DX2                !
 ! D86   D(20,18,21,22)         78.9116         estimate D2E/DX2                !
 ! D87   D(20,18,21,23)        -43.5574         estimate D2E/DX2                !
 ! D88   D(20,18,21,24)       -161.7663         estimate D2E/DX2                !
 ! D89   D(7,29,30,31)         -62.1442         estimate D2E/DX2                !
 ! D90   D(7,29,30,32)         178.9761         estimate D2E/DX2                !
 ! D91   D(7,29,30,33)          59.9307         estimate D2E/DX2                !
 ! D92   D(1,34,35,38)           5.1466         estimate D2E/DX2                !
 ! D93   D(1,34,35,39)        -116.3296         estimate D2E/DX2                !
 ! D94   D(1,34,35,40)         128.0896         estimate D2E/DX2                !
 ! D95   D(36,34,35,38)       -116.5477         estimate D2E/DX2                !
 ! D96   D(36,34,35,39)        121.9761         estimate D2E/DX2                !
 ! D97   D(36,34,35,40)          6.3953         estimate D2E/DX2                !
 ! D98   D(37,34,35,38)        126.8519         estimate D2E/DX2                !
 ! D99   D(37,34,35,39)          5.3757         estimate D2E/DX2                !
 ! D100  D(37,34,35,40)       -110.205          estimate D2E/DX2                !
 ! D101  D(1,34,36,41)        -156.3701         estimate D2E/DX2                !
 ! D102  D(1,34,36,42)         -36.6527         estimate D2E/DX2                !
 ! D103  D(1,34,36,43)          81.1849         estimate D2E/DX2                !
 ! D104  D(35,34,36,41)        -31.2772         estimate D2E/DX2                !
 ! D105  D(35,34,36,42)         88.4402         estimate D2E/DX2                !
 ! D106  D(35,34,36,43)       -153.7222         estimate D2E/DX2                !
 ! D107  D(37,34,36,41)         79.2255         estimate D2E/DX2                !
 ! D108  D(37,34,36,42)       -161.0571         estimate D2E/DX2                !
 ! D109  D(37,34,36,43)        -43.2195         estimate D2E/DX2                !
 ! D110  D(1,34,37,44)         -55.3515         estimate D2E/DX2                !
 ! D111  D(1,34,37,45)          59.1273         estimate D2E/DX2                !
 ! D112  D(1,34,37,46)        -179.8204         estimate D2E/DX2                !
 ! D113  D(35,34,37,44)        179.398          estimate D2E/DX2                !
 ! D114  D(35,34,37,45)        -66.1232         estimate D2E/DX2                !
 ! D115  D(35,34,37,46)         54.9291         estimate D2E/DX2                !
 ! D116  D(36,34,37,44)         69.2046         estimate D2E/DX2                !
 ! D117  D(36,34,37,45)       -176.3165         estimate D2E/DX2                !
 ! D118  D(36,34,37,46)        -55.2642         estimate D2E/DX2                !
 ! D119  D(34,35,38,47)         94.283          estimate D2E/DX2                !
 ! D120  D(34,35,38,48)       -146.1076         estimate D2E/DX2                !
 ! D121  D(34,35,38,49)        -27.04           estimate D2E/DX2                !
 ! D122  D(39,35,38,47)       -144.4703         estimate D2E/DX2                !
 ! D123  D(39,35,38,48)        -24.8609         estimate D2E/DX2                !
 ! D124  D(39,35,38,49)         94.2067         estimate D2E/DX2                !
 ! D125  D(40,35,38,47)        -29.041          estimate D2E/DX2                !
 ! D126  D(40,35,38,48)         90.5684         estimate D2E/DX2                !
 ! D127  D(40,35,38,49)       -150.364          estimate D2E/DX2                !
 ! D128  D(34,36,41,50)         77.7508         estimate D2E/DX2                !
 ! D129  D(34,36,41,51)       -164.5025         estimate D2E/DX2                !
 ! D130  D(34,36,41,52)        -45.5525         estimate D2E/DX2                !
 ! D131  D(42,36,41,50)        -39.9189         estimate D2E/DX2                !
 ! D132  D(42,36,41,51)         77.8279         estimate D2E/DX2                !
 ! D133  D(42,36,41,52)       -163.2221         estimate D2E/DX2                !
 ! D134  D(43,36,41,50)       -158.1786         estimate D2E/DX2                !
 ! D135  D(43,36,41,51)        -40.4318         estimate D2E/DX2                !
 ! D136  D(43,36,41,52)         78.5181         estimate D2E/DX2                !
 ! D137  D(34,36,42,53)        177.2994         estimate D2E/DX2                !
 ! D138  D(34,36,42,54)        -63.4959         estimate D2E/DX2                !
 ! D139  D(34,36,42,55)         58.3755         estimate D2E/DX2                !
 ! D140  D(41,36,42,53)        -60.2173         estimate D2E/DX2                !
 ! D141  D(41,36,42,54)         58.9873         estimate D2E/DX2                !
 ! D142  D(41,36,42,55)       -179.1413         estimate D2E/DX2                !
 ! D143  D(43,36,42,53)         57.7746         estimate D2E/DX2                !
 ! D144  D(43,36,42,54)        176.9792         estimate D2E/DX2                !
 ! D145  D(43,36,42,55)        -61.1494         estimate D2E/DX2                !
 ! D146  D(34,36,43,56)         74.1316         estimate D2E/DX2                !
 ! D147  D(34,36,43,57)        -48.6184         estimate D2E/DX2                !
 ! D148  D(34,36,43,58)       -167.1716         estimate D2E/DX2                !
 ! D149  D(41,36,43,56)        -51.2789         estimate D2E/DX2                !
 ! D150  D(41,36,43,57)       -174.0289         estimate D2E/DX2                !
 ! D151  D(41,36,43,58)         67.4178         estimate D2E/DX2                !
 ! D152  D(42,36,43,56)       -169.8775         estimate D2E/DX2                !
 ! D153  D(42,36,43,57)         67.3725         estimate D2E/DX2                !
 ! D154  D(42,36,43,58)        -51.1808         estimate D2E/DX2                !
 ! D155  D(34,37,44,59)         33.7968         estimate D2E/DX2                !
 ! D156  D(34,37,44,60)        153.2614         estimate D2E/DX2                !
 ! D157  D(34,37,44,61)        -87.2073         estimate D2E/DX2                !
 ! D158  D(45,37,44,59)        -79.201          estimate D2E/DX2                !
 ! D159  D(45,37,44,60)         40.2635         estimate D2E/DX2                !
 ! D160  D(45,37,44,61)        159.7948         estimate D2E/DX2                !
 ! D161  D(46,37,44,59)        160.6157         estimate D2E/DX2                !
 ! D162  D(46,37,44,60)        -79.9198         estimate D2E/DX2                !
 ! D163  D(46,37,44,61)         39.6115         estimate D2E/DX2                !
 ! D164  D(34,37,45,62)       -175.7336         estimate D2E/DX2                !
 ! D165  D(34,37,45,63)        -57.5087         estimate D2E/DX2                !
 ! D166  D(34,37,45,64)         64.6372         estimate D2E/DX2                !
 ! D167  D(44,37,45,62)        -59.3749         estimate D2E/DX2                !
 ! D168  D(44,37,45,63)         58.85           estimate D2E/DX2                !
 ! D169  D(44,37,45,64)       -179.0041         estimate D2E/DX2                !
 ! D170  D(46,37,45,62)         60.6741         estimate D2E/DX2                !
 ! D171  D(46,37,45,63)        178.899          estimate D2E/DX2                !
 ! D172  D(46,37,45,64)        -58.9551         estimate D2E/DX2                !
 ! D173  D(34,37,46,65)       -175.4269         estimate D2E/DX2                !
 ! D174  D(34,37,46,66)        -56.1604         estimate D2E/DX2                !
 ! D175  D(34,37,46,67)         65.9412         estimate D2E/DX2                !
 ! D176  D(44,37,46,65)         60.42           estimate D2E/DX2                !
 ! D177  D(44,37,46,66)        179.6865         estimate D2E/DX2                !
 ! D178  D(44,37,46,67)        -58.2119         estimate D2E/DX2                !
 ! D179  D(45,37,46,65)        -57.6328         estimate D2E/DX2                !
 ! D180  D(45,37,46,66)         61.6338         estimate D2E/DX2                !
 ! D181  D(45,37,46,67)       -176.2647         estimate D2E/DX2                !
 ! D182  D(35,38,47,68)         57.9599         estimate D2E/DX2                !
 ! D183  D(35,38,47,69)        -63.6694         estimate D2E/DX2                !
 ! D184  D(35,38,47,70)        177.0752         estimate D2E/DX2                !
 ! D185  D(48,38,47,68)        -60.9217         estimate D2E/DX2                !
 ! D186  D(48,38,47,69)        177.449          estimate D2E/DX2                !
 ! D187  D(48,38,47,70)         58.1936         estimate D2E/DX2                !
 ! D188  D(49,38,47,68)       -179.7202         estimate D2E/DX2                !
 ! D189  D(49,38,47,69)         58.6505         estimate D2E/DX2                !
 ! D190  D(49,38,47,70)        -60.6049         estimate D2E/DX2                !
 ! D191  D(35,38,48,71)         59.2311         estimate D2E/DX2                !
 ! D192  D(35,38,48,72)        179.0311         estimate D2E/DX2                !
 ! D193  D(35,38,48,73)        -61.1785         estimate D2E/DX2                !
 ! D194  D(47,38,48,71)       -179.4866         estimate D2E/DX2                !
 ! D195  D(47,38,48,72)        -59.6866         estimate D2E/DX2                !
 ! D196  D(47,38,48,73)         60.1038         estimate D2E/DX2                !
 ! D197  D(49,38,48,71)        -60.8098         estimate D2E/DX2                !
 ! D198  D(49,38,48,72)         58.9902         estimate D2E/DX2                !
 ! D199  D(49,38,48,73)        178.7806         estimate D2E/DX2                !
 ! D200  D(35,38,49,74)        177.7189         estimate D2E/DX2                !
 ! D201  D(35,38,49,75)        -60.866          estimate D2E/DX2                !
 ! D202  D(35,38,49,76)         58.8457         estimate D2E/DX2                !
 ! D203  D(47,38,49,74)         54.7597         estimate D2E/DX2                !
 ! D204  D(47,38,49,75)        176.1748         estimate D2E/DX2                !
 ! D205  D(47,38,49,76)        -64.1136         estimate D2E/DX2                !
 ! D206  D(48,38,49,74)        -63.9988         estimate D2E/DX2                !
 ! D207  D(48,38,49,75)         57.4163         estimate D2E/DX2                !
 ! D208  D(48,38,49,76)        177.128          estimate D2E/DX2                !
 --------------------------------------------------------------------------------
 Trust Radius=3.00D-01 FncErr=1.00D-07 GrdErr=1.00D-06
 Number of steps in this run=    442 maximum allowed number of steps=    456.
 GradGradGradGradGradGradGradGradGradGradGradGradGradGradGradGradGradGrad

 Leave Link  103 at Wed Feb 28 14:20:20 2024, MaxMem=  4294967296 cpu:         0.1
 (Enter /cluster/apps/gaussian/g09/l202.exe)
 Stoichiometry    C27H37ClF4NO3PPdS
 Framework group  C1[X(C27H37ClF4NO3PPdS)]
 Deg. of freedom   222
 Full point group                 C1      NOp   1
 Largest Abelian subgroup         C1      NOp   1
 Largest concise Abelian subgroup C1      NOp   1
                         Standard orientation:                         
 ---------------------------------------------------------------------
 Center     Atomic      Atomic             Coordinates (Angstroms)
 Number     Number       Type             X           Y           Z
 ---------------------------------------------------------------------
      1         46           0        0.770622   -0.358905   -0.313953
      2          6           0       -0.406135    1.240996   -0.282807
      3          6           0        0.027555    2.461922   -0.804413
      4          1           0        1.044235    2.569077   -1.175663
      5          6           0       -0.797459    3.576166   -0.856264
      6          1           0       -0.440222    4.525478   -1.259915
      7          6           0       -2.113041    3.489852   -0.390615
      8          6           0       -2.572563    2.276137    0.116321
      9          1           0       -3.597259    2.183380    0.469406
     10          6           0       -1.732945    1.146352    0.179920
     11          6           0       -2.294048   -0.113327    0.712344
     12          6           0       -3.197387   -0.150094    1.777164
     13          6           0       -3.756622   -1.344475    2.222905
     14          6           0       -3.398308   -2.542436    1.612622
     15          6           0       -2.466817   -2.538260    0.578523
     16          6           0       -1.915900   -1.338383    0.117533
     17          7           0       -0.904284   -1.361298   -0.839589
     18         16           0       -1.235726   -1.750080   -2.381909
     19          8           0       -0.031612   -2.323095   -2.976793
     20          8           0       -2.520353   -2.439098   -2.461463
     21          6           0       -1.556235   -0.196460   -3.271549
     22         17           0       -2.423010    1.006846   -2.322260
     23          1           0       -2.124565   -0.438847   -4.179544
     24          1           0       -0.560039    0.190001   -3.523522
     25          9           0       -2.074649   -3.696738    0.079825
     26          9           0       -3.907915   -3.681455    2.051338
     27          9           0       -4.611090   -1.345788    3.235592
     28          9           0       -3.549487    0.960717    2.426379
     29          8           0       -2.862624    4.610307   -0.473500
     30          6           0       -4.251515    4.496952   -0.347752
     31          1           0       -4.689328    3.875823   -1.149635
     32          1           0       -4.659704    5.512777   -0.425649
     33          1           0       -4.543422    4.067751    0.627340
     34         15           0        2.752829    0.418469    0.632327
     35          6           0        4.232987   -0.725845    0.510783
     36          6           0        3.358885    1.997944   -0.245494
     37          6           0        2.550644    0.682539    2.496993
     38          6           0        4.053685   -2.022390   -0.304745
     39          1           0        4.514347   -1.005911    1.527873
     40          1           0        5.070427   -0.173937    0.088842
     41          6           0        4.867111    2.239136   -0.099287
     42          6           0        3.019590    1.804922   -1.726393
     43          6           0        2.623662    3.234085    0.268774
     44          6           0        1.370320    1.623866    2.759856
     45          6           0        2.155952   -0.693694    3.043728
     46          6           0        3.804219    1.197090    3.199977
     47          6           0        4.516323   -1.846362   -1.753394
     48          6           0        4.902423   -3.115193    0.361070
     49          6           0        2.592938   -2.457842   -0.303955
     50          1           0        5.450881    1.606978   -0.764439
     51          1           0        5.078806    3.270160   -0.377665
     52          1           0        5.210606    2.093803    0.921571
     53          1           0        3.297542    2.697486   -2.284716
     54          1           0        3.563243    0.964460   -2.151671
     55          1           0        1.949737    1.646223   -1.862610
     56          1           0        2.967727    3.515043    1.260332
     57          1           0        1.551083    3.068351    0.282288
     58          1           0        2.823630    4.069720   -0.400506
     59          1           0        0.584839    1.478489    2.019635
     60          1           0        0.952543    1.420498    3.744071
     61          1           0        1.667926    2.666435    2.736941
     62          1           0        1.943667   -0.620332    4.108787
     63          1           0        1.245420   -1.044677    2.547205
     64          1           0        2.942530   -1.434622    2.919024
     65          1           0        3.617198    1.239620    4.272079
     66          1           0        4.662373    0.547899    3.038460
     67          1           0        4.058989    2.200494    2.869252
     68          1           0        5.559886   -1.539505   -1.790311
     69          1           0        3.896448   -1.098669   -2.276962
     70          1           0        4.426306   -2.789866   -2.289134
     71          1           0        4.593583   -3.273089    1.392044
     72          1           0        4.792456   -4.055406   -0.173184
     73          1           0        5.955404   -2.843276    0.356937
     74          1           0        2.451469   -3.350870   -0.911196
     75          1           0        2.228746   -2.663104    0.700911
     76          1           0        1.965253   -1.645939   -0.738896
 ---------------------------------------------------------------------
 Rotational constants (GHZ):      0.1007761      0.0694993      0.0605445
 Leave Link  202 at Wed Feb 28 14:20:20 2024, MaxMem=  4294967296 cpu:         0.7
 (Enter /cluster/apps/gaussian/g09/l301.exe)
 General basis read from cards:  (5D, 7F)
 Centers:       2      3      5      7      8     10     11     12     13     14
 Centers:      15     16     21     30     35     36     37     38     41     42
 Centers:      43     44     45     46     47     48     49      4      6      9
 Centers:      23     24     31     32     33     39     40     50     51     52
 Centers:      53     54     55     56     57     58     59     60     61     62
 Centers:      63     64     65     66     67     68     69     70     71     72
 Centers:      73     74     75     76     17     19     20     29     18     25
 Centers:      26     27     28     22     34
 def2svp
 ****
 Centers:       1
 def2tzvp
 ****
 ======================================================================================================
                                       Pseudopotential Parameters
 ======================================================================================================
  Center     Atomic      Valence      Angular      Power
  Number     Number     Electrons     Momentum     of R      Exponent        Coefficient   SO-Coeffient
 ======================================================================================================
    1         46           18
                                      G and up 
                                                     2        1.0000000        0.00000000    0.00000000
                                      S - G
                                                     2       12.4300000      240.22904000    0.00000000
                                                     2        6.1707590       35.17194300    0.00000000
                                      P - G
                                                     2       11.0800000      170.41727600    0.00000000
                                                     2        5.8295540       28.47213300    0.00000000
                                      D - G
                                                     2        9.5100000       69.01384500    0.00000000
                                                     2        4.1397810       11.75086200    0.00000000
                                      F - G
                                                     2       13.2700000      -31.92955400    0.00000000
                                                     2        6.6300000       -5.39821700    0.00000000
    2          6
                                   No pseudopotential on this center.
    3          6
                                   No pseudopotential on this center.
    4          1
                                   No pseudopotential on this center.
    5          6
                                   No pseudopotential on this center.
    6          1
                                   No pseudopotential on this center.
    7          6
                                   No pseudopotential on this center.
    8          6
                                   No pseudopotential on this center.
    9          1
                                   No pseudopotential on this center.
   10          6
                                   No pseudopotential on this center.
   11          6
                                   No pseudopotential on this center.
   12          6
                                   No pseudopotential on this center.
   13          6
                                   No pseudopotential on this center.
   14          6
                                   No pseudopotential on this center.
   15          6
                                   No pseudopotential on this center.
   16          6
                                   No pseudopotential on this center.
   17          7
                                   No pseudopotential on this center.
   18         16
                                   No pseudopotential on this center.
   19          8
                                   No pseudopotential on this center.
   20          8
                                   No pseudopotential on this center.
   21          6
                                   No pseudopotential on this center.
   22         17
                                   No pseudopotential on this center.
   23          1
                                   No pseudopotential on this center.
   24          1
                                   No pseudopotential on this center.
   25          9
                                   No pseudopotential on this center.
   26          9
                                   No pseudopotential on this center.
   27          9
                                   No pseudopotential on this center.
   28          9
                                   No pseudopotential on this center.
   29          8
                                   No pseudopotential on this center.
   30          6
                                   No pseudopotential on this center.
   31          1
                                   No pseudopotential on this center.
   32          1
                                   No pseudopotential on this center.
   33          1
                                   No pseudopotential on this center.
   34         15
                                   No pseudopotential on this center.
   35          6
                                   No pseudopotential on this center.
   36          6
                                   No pseudopotential on this center.
   37          6
                                   No pseudopotential on this center.
   38          6
                                   No pseudopotential on this center.
   39          1
                                   No pseudopotential on this center.
   40          1
                                   No pseudopotential on this center.
   41          6
                                   No pseudopotential on this center.
   42          6
                                   No pseudopotential on this center.
   43          6
                                   No pseudopotential on this center.
   44          6
                                   No pseudopotential on this center.
   45          6
                                   No pseudopotential on this center.
   46          6
                                   No pseudopotential on this center.
   47          6
                                   No pseudopotential on this center.
   48          6
                                   No pseudopotential on this center.
   49          6
                                   No pseudopotential on this center.
   50          1
                                   No pseudopotential on this center.
   51          1
                                   No pseudopotential on this center.
   52          1
                                   No pseudopotential on this center.
   53          1
                                   No pseudopotential on this center.
   54          1
                                   No pseudopotential on this center.
   55          1
                                   No pseudopotential on this center.
   56          1
                                   No pseudopotential on this center.
   57          1
                                   No pseudopotential on this center.
   58          1
                                   No pseudopotential on this center.
   59          1
                                   No pseudopotential on this center.
   60          1
                                   No pseudopotential on this center.
   61          1
                                   No pseudopotential on this center.
   62          1
                                   No pseudopotential on this center.
   63          1
                                   No pseudopotential on this center.
   64          1
                                   No pseudopotential on this center.
   65          1
                                   No pseudopotential on this center.
   66          1
                                   No pseudopotential on this center.
   67          1
                                   No pseudopotential on this center.
   68          1
                                   No pseudopotential on this center.
   69          1
                                   No pseudopotential on this center.
   70          1
                                   No pseudopotential on this center.
   71          1
                                   No pseudopotential on this center.
   72          1
                                   No pseudopotential on this center.
   73          1
                                   No pseudopotential on this center.
   74          1
                                   No pseudopotential on this center.
   75          1
                                   No pseudopotential on this center.
   76          1
                                   No pseudopotential on this center.
 ======================================================================================================
 Ernie: Thresh=  0.10000D-02 Tol=  0.10000D-05 Strict=F.
 There are   813 symmetry adapted cartesian basis functions of A   symmetry.
 There are   769 symmetry adapted basis functions of A   symmetry.
   769 basis functions,  1319 primitive gaussians,   813 cartesian basis functions
   166 alpha electrons      166 beta electrons
       nuclear repulsion energy      6463.6495891449 Hartrees.
 IExCor= 1009 DFT=T Ex+Corr=PBE1PBE ExCW=0 ScaHFX=  0.250000
 ScaDFX=  0.750000  0.750000  1.000000  1.000000 ScalE2=  1.000000  1.000000
 IRadAn=      5 IRanWt=     -1 IRanGd=            0 ICorTp=0 IEmpDi=141
 NAtoms=   76 NActive=   76 NUniq=   76 SFac= 1.00D+00 NAtFMM=   60 NAOKFM=T Big=T
 Integral buffers will be    131072 words long.
 Raffenetti 2 integral format.
 Two-electron integral symmetry is turned on.
 R6Disp:  Grimme-D3(BJ) Dispersion energy=       -0.1271229899 Hartrees.
 Nuclear repulsion after empirical dispersion term =     6463.5224661550 Hartrees.
 Leave Link  301 at Wed Feb 28 14:20:21 2024, MaxMem=  4294967296 cpu:         0.1
 (Enter /cluster/apps/gaussian/g09/l302.exe)
 NPDir=0 NMtPBC=     1 NCelOv=     1 NCel=       1 NClECP=     1 NCelD=      1
         NCelK=      1 NCelE2=     1 NClLst=     1 CellRange=     0.0.
 One-electron integrals computed using PRISM.
   1 Symmetry operations used in ECPInt.
 ECPInt:  NShTT=   64620 NPrTT=  232188 LenC2=   54073 LenP2D=  125423.
 LDataN:  DoStor=T MaxTD1= 7 Len=  274
 NBasis=   769 RedAO= T EigKep=  1.13D-04  NBF=   769
 NBsUse=   769 1.00D-06 EigRej= -1.00D+00 NBFU=   769
 Precomputing XC quadrature grid using
 IXCGrd= 4 IRadAn=           5 IRanWt=          -1 IRanGd=           0 AccXCQ= 0.00D+00.
 Defaulting to unpruned grid for atomic number  46.
 Generated NRdTot=       0 NPtTot=           0 NUsed=           0 NTot=          32
 NSgBfM=   772   772   772   772   772 MxSgAt=    76 MxSgA2=    76.
 Leave Link  302 at Wed Feb 28 14:20:23 2024, MaxMem=  4294967296 cpu:        29.9
 (Enter /cluster/apps/gaussian/g09/l303.exe)
 DipDrv:  MaxL=1.
 Leave Link  303 at Wed Feb 28 14:20:25 2024, MaxMem=  4294967296 cpu:         3.5
 (Enter /cluster/apps/gaussian/g09/l401.exe)
 ExpMin= 3.70D-02 ExpMax= 1.04D+04 ExpMxC= 1.57D+03 IAcc=3 IRadAn=         5 AccDes= 0.00D+00
 Harris functional with IExCor= 1009 and IRadAn=       5 diagonalized for initial guess.
 HarFok:  IExCor= 1009 AccDes= 0.00D+00 IRadAn=         5 IDoV= 1 UseB2=F ITyADJ=14
 ICtDFT=  3500011 ScaDFX=  1.000000  1.000000  1.000000  1.000000
 Defaulting to unpruned grid for atomic number  46.
 Defaulting to unpruned grid for atomic number  46.
 Defaulting to unpruned grid for atomic number  46.
 Defaulting to unpruned grid for atomic number  46.
 Defaulting to unpruned grid for atomic number  46.
 Defaulting to unpruned grid for atomic number  46.
 Defaulting to unpruned grid for atomic number  46.
 Defaulting to unpruned grid for atomic number  46.
 Defaulting to unpruned grid for atomic number  46.
 Defaulting to unpruned grid for atomic number  46.
 Defaulting to unpruned grid for atomic number  46.
 Defaulting to unpruned grid for atomic number  46.
 Defaulting to unpruned grid for atomic number  46.
 Defaulting to unpruned grid for atomic number  46.
 Defaulting to unpruned grid for atomic number  46.
 Defaulting to unpruned grid for atomic number  46.
 FoFCou: FMM=F IPFlag=           0 FMFlag=      100000 FMFlg1=        2001
         NFxFlg=           0 DoJE=T BraDBF=F KetDBF=T FulRan=T
         wScrn=  0.000000 ICntrl=     500 IOpCl=  0 I1Cent=   200000004 NGrid=           0
         NMat0=    1 NMatS0=      1 NMatT0=    0 NMatD0=    1 NMtDS0=    0 NMtDT0=    0
 Petite list used in FoFCou.
 Harris En= -3055.19581754009    
 JPrj=0 DoOrth=F DoCkMO=F.
 Leave Link  401 at Wed Feb 28 14:20:31 2024, MaxMem=  4294967296 cpu:        74.3
 (Enter /cluster/apps/gaussian/g09/l502.exe)
 Closed shell SCF:
 Using DIIS extrapolation, IDIIS=  1040.
 Integral symmetry usage will be decided dynamically.
 IVT=     2020623 IEndB=     2020623 NGot=  4294967296 MDV=  4293625096
 LenX=  4293625096 LenY=  4292963314
 Requested convergence on RMS density matrix=1.00D-08 within 128 cycles.
 Requested convergence on MAX density matrix=1.00D-06.
 Requested convergence on             energy=1.00D-06.
 No special actions if energy rises.
 Fock matrices will be formed incrementally for  20 cycles.

 Cycle   1  Pass 1  IDiag  1:
 FoFJK:  IHMeth= 1 ICntrl=       0 DoSepK=F KAlg= 0 I1Cent=   0 FoldK=F
 IRaf= 920000000 NMat=   1 IRICut=       1 DoRegI=T DoRafI=F ISym2E= 0.
 FoFCou: FMM=T IPFlag=           0 FMFlag=      100000 FMFlg1=        2001
         NFxFlg=           0 DoJE=F BraDBF=F KetDBF=F FulRan=T
         wScrn=  0.000000 ICntrl=       0 IOpCl=  0 I1Cent=           0 NGrid=           0
         NMat0=    1 NMatS0=      1 NMatT0=    0 NMatD0=    1 NMtDS0=    0 NMtDT0=    0
 Symmetry not used in FoFCou.
 FMM levels:  10  Number of levels for PrismC:   9
 Defaulting to unpruned grid for atomic number  46.
 Defaulting to unpruned grid for atomic number  46.
 Defaulting to unpruned grid for atomic number  46.
 Defaulting to unpruned grid for atomic number  46.
 Defaulting to unpruned grid for atomic number  46.
 Defaulting to unpruned grid for atomic number  46.
 Defaulting to unpruned grid for atomic number  46.
 Defaulting to unpruned grid for atomic number  46.
 Defaulting to unpruned grid for atomic number  46.
 Defaulting to unpruned grid for atomic number  46.
 Defaulting to unpruned grid for atomic number  46.
 Defaulting to unpruned grid for atomic number  46.
 Defaulting to unpruned grid for atomic number  46.
 Defaulting to unpruned grid for atomic number  46.
 Defaulting to unpruned grid for atomic number  46.
 Defaulting to unpruned grid for atomic number  46.
 E= -3050.58959636647    
 DIIS: error= 4.68D-02 at cycle   1 NSaved=   1.
 NSaved= 1 IEnMin= 1 EnMin= -3050.58959636647     IErMin= 1 ErrMin= 4.68D-02
 ErrMax= 4.68D-02  0.00D+00 EMaxC= 1.00D-01 BMatC= 4.46D+00 BMatP= 4.46D+00
 IDIUse=3 WtCom= 5.32D-01 WtEn= 4.68D-01
 Coeff-Com:  0.100D+01
 Coeff-En:   0.100D+01
 Coeff:      0.100D+01
 Gap=    -0.966 Goal=   None    Shift=    0.000
 GapD=   -0.966 DampG=0.250 DampE=0.250 DampFc=0.1250 IDamp=-1.
 Damping current iteration by 1.25D-01
 RMSDP=3.01D-02 MaxDP=9.74D+00              OVMax= 8.66D-01

 Cycle   2  Pass 1  IDiag  1:
 RMSU=  3.76D-03    CP:  1.00D+00
 E= -3051.41955710346     Delta-E=       -0.829960736995 Rises=F Damp=T
 DIIS: error= 2.23D-02 at cycle   2 NSaved=   2.
 NSaved= 2 IEnMin= 2 EnMin= -3051.41955710346     IErMin= 2 ErrMin= 2.23D-02
 ErrMax= 2.23D-02  0.00D+00 EMaxC= 1.00D-01 BMatC= 1.34D+00 BMatP= 4.46D+00
 IDIUse=3 WtCom= 7.77D-01 WtEn= 2.23D-01
 Coeff-Com: -0.744D+00 0.174D+01
 Coeff-En:   0.126D+00 0.874D+00
 Coeff:     -0.550D+00 0.155D+01
 Gap=    -0.664 Goal=   None    Shift=    0.000
 RMSDP=7.96D-03 MaxDP=1.14D+00 DE=-8.30D-01 OVMax= 9.44D-01

 Cycle   3  Pass 1  IDiag  1:
 RMSU=  7.41D-03    CP:  9.72D-01  2.28D-01
 E= -3041.18589181733     Delta-E=       10.233665286134 Rises=F Damp=F
 DIIS: error= 4.29D-02 at cycle   3 NSaved=   3.
 NSaved= 3 IEnMin= 2 EnMin= -3051.41955710346     IErMin= 2 ErrMin= 2.23D-02
 ErrMax= 4.29D-02  0.00D+00 EMaxC= 1.00D-01 BMatC= 8.70D+00 BMatP= 1.34D+00
 IDIUse=2 WtCom= 0.00D+00 WtEn= 1.00D+00
 Coeff-En:   0.000D+00 0.865D+00 0.135D+00
 Coeff:      0.000D+00 0.865D+00 0.135D+00
 Gap=    -0.024 Goal=   None    Shift=    0.000
 RMSDP=8.25D-03 MaxDP=1.12D+00 DE= 1.02D+01 OVMax= 8.09D-01

 Cycle   4  Pass 1  IDiag  1:
 RMSU=  5.04D-03    CP:  9.51D-01  6.77D-01  1.49D-01
 E= -3048.90186683693     Delta-E=       -7.715975019604 Rises=F Damp=F
 DIIS: error= 4.77D-02 at cycle   4 NSaved=   4.
 NSaved= 4 IEnMin= 2 EnMin= -3051.41955710346     IErMin= 2 ErrMin= 2.23D-02
 ErrMax= 4.77D-02  0.00D+00 EMaxC= 1.00D-01 BMatC= 5.32D+00 BMatP= 1.34D+00
 IDIUse=2 WtCom= 0.00D+00 WtEn= 1.00D+00
 EnCoef did   100 forward-backward iterations
 Coeff-En:   0.543D+00 0.115D-01 0.155D-01 0.430D+00
 Coeff:      0.543D+00 0.115D-01 0.155D-01 0.430D+00
 Gap=     0.087 Goal=   None    Shift=    0.000
 RMSDP=4.60D-03 MaxDP=1.24D+00 DE=-7.72D+00 OVMax= 5.97D-01

 Cycle   5  Pass 1  IDiag  1:
 RMSU=  2.46D-03    CP:  9.57D-01  1.47D-01  1.76D-01  3.38D-01
 E= -3054.09178594693     Delta-E=       -5.189919109995 Rises=F Damp=F
 DIIS: error= 1.12D-02 at cycle   5 NSaved=   5.
 NSaved= 5 IEnMin= 5 EnMin= -3054.09178594693     IErMin= 5 ErrMin= 1.12D-02
 ErrMax= 1.12D-02  0.00D+00 EMaxC= 1.00D-01 BMatC= 5.36D-01 BMatP= 1.34D+00
 IDIUse=3 WtCom= 8.88D-01 WtEn= 1.12D-01
 Coeff-Com: -0.252D+00 0.691D+00-0.280D-01-0.740D-02 0.596D+00
 Coeff-En:   0.684D-01 0.000D+00 0.000D+00 0.000D+00 0.932D+00
 Coeff:     -0.217D+00 0.614D+00-0.248D-01-0.658D-02 0.634D+00
 Gap=     0.202 Goal=   None    Shift=    0.000
 RMSDP=1.44D-03 MaxDP=1.62D-01 DE=-5.19D+00 OVMax= 1.21D-01

 Cycle   6  Pass 1  IDiag  1:
 RMSU=  1.19D-03    CP:  9.55D-01  9.51D-02  1.08D-01  3.24D-01  7.51D-01
 E= -3054.49958060460     Delta-E=       -0.407794657669 Rises=F Damp=F
 DIIS: error= 1.44D-02 at cycle   6 NSaved=   6.
 NSaved= 6 IEnMin= 6 EnMin= -3054.49958060460     IErMin= 5 ErrMin= 1.12D-02
 ErrMax= 1.44D-02  0.00D+00 EMaxC= 1.00D-01 BMatC= 1.11D-01 BMatP= 5.36D-01
 IDIUse=3 WtCom= 8.88D-01 WtEn= 1.12D-01
 Coeff-Com: -0.179D+00 0.430D+00-0.307D-01-0.202D-01 0.367D+00 0.432D+00
 Coeff-En:   0.000D+00 0.000D+00 0.000D+00 0.000D+00 0.437D-02 0.996D+00
 Coeff:     -0.159D+00 0.382D+00-0.272D-01-0.179D-01 0.327D+00 0.495D+00
 Gap=     0.166 Goal=   None    Shift=    0.000
 RMSDP=8.12D-04 MaxDP=4.96D-02 DE=-4.08D-01 OVMax= 1.07D-01

 Cycle   7  Pass 1  IDiag  1:
 RMSU=  5.76D-04    CP:  9.56D-01  1.05D-01  1.07D-01  3.25D-01  8.15D-01
                    CP:  5.38D-01
 E= -3054.58207688125     Delta-E=       -0.082496276656 Rises=F Damp=F
 DIIS: error= 2.97D-03 at cycle   7 NSaved=   7.
 NSaved= 7 IEnMin= 7 EnMin= -3054.58207688125     IErMin= 7 ErrMin= 2.97D-03
 ErrMax= 2.97D-03  0.00D+00 EMaxC= 1.00D-01 BMatC= 3.32D-02 BMatP= 1.11D-01
 IDIUse=3 WtCom= 9.70D-01 WtEn= 2.97D-02
 Coeff-Com: -0.630D-01 0.125D+00-0.131D-01-0.314D-02-0.215D-01 0.285D+00
 Coeff-Com:  0.691D+00
 Coeff-En:   0.000D+00 0.000D+00 0.000D+00 0.000D+00 0.000D+00 0.183D+00
 Coeff-En:   0.817D+00
 Coeff:     -0.611D-01 0.121D+00-0.127D-01-0.304D-02-0.209D-01 0.282D+00
 Coeff:      0.695D+00
 Gap=     0.164 Goal=   None    Shift=    0.000
 RMSDP=4.26D-04 MaxDP=2.07D-02 DE=-8.25D-02 OVMax= 5.06D-02

 Cycle   8  Pass 1  IDiag  1:
 RMSU=  3.18D-04    CP:  9.56D-01  1.06D-01  9.70D-02  3.36D-01  7.65D-01
                    CP:  7.22D-01  8.40D-01
 E= -3054.61097445150     Delta-E=       -0.028897570250 Rises=F Damp=F
 DIIS: error= 1.96D-03 at cycle   8 NSaved=   8.
 NSaved= 8 IEnMin= 8 EnMin= -3054.61097445150     IErMin= 8 ErrMin= 1.96D-03
 ErrMax= 1.96D-03  0.00D+00 EMaxC= 1.00D-01 BMatC= 6.45D-03 BMatP= 3.32D-02
 IDIUse=3 WtCom= 9.80D-01 WtEn= 1.96D-02
 Coeff-Com: -0.204D-01 0.286D-01-0.917D-03 0.304D-02-0.989D-01 0.856D-01
 Coeff-Com:  0.443D+00 0.560D+00
 Coeff-En:   0.000D+00 0.000D+00 0.000D+00 0.000D+00 0.000D+00 0.000D+00
 Coeff-En:   0.000D+00 0.100D+01
 Coeff:     -0.200D-01 0.280D-01-0.899D-03 0.298D-02-0.970D-01 0.839D-01
 Coeff:      0.434D+00 0.568D+00
 Gap=     0.149 Goal=   None    Shift=    0.000
[...]
 0010626,0.00077549,0.00038896,0.00008237,-0.00040868,0.00043449,-0.021
 04663,-0.09016249,-0.07572697,0.00002932,-0.00002466,-0.00000644,0.000
 01103,-0.00001917,-0.00000035,0.00000610,0.00000362,0.00000013,0.00000
 103,-0.00000640,0.00000704,0.00001769,0.00000419,0.00000286,0.00000103
 ,0.00000622,0.00001822,0.00000898,-0.00000003,0.00000203,-0.00000867,-
 0.00000615,-0.00001556,-0.00000001,-0.00000916,0.00000041,0.00000196,0
 .00000115,-0.00003172,0.00000667,-0.00000043,0.00001252,0.00000378,-0.
 00002502,0.00000175,-0.00003920,-0.00017712,-0.00005162,-0.00017635,0.
 00014395,-0.00006586,0.00014949,-0.00014435,0.00023891,0.00002057,0.00
 000346,0.00001214,0.00001448,-0.00000227,0.00001315,-0.00001831,-0.000
 01080,-0.00001010,-0.00014639,-0.00020784,-0.00006168,0.00009736,-0.00
 004408,0.00007818,0.00029976,-0.00018900,-0.00008769,-0.00012479,-0.00
 017939,-0.00031532,-0.00024211,0.00011654,0.00022521,0.00013807,0.0002
 4468,-0.00004317,0.02588436,0.09714655,0.08079385,0.00035461,0.0012105
 1,-0.00071757,-0.00004719,-0.00017998,0.00015895,0.00001935,-0.0000162
 9,-0.00001294,-0.00000915,-0.00000466,-0.00001254,-0.00001122,-0.00001
 335,0.00001936,0.00000049,-0.00000043,-0.00000062,-0.00000546,-0.00003
 041,0.00001721,-0.00000531,0.00001735,-0.00001787,-0.00000183,0.000006
 28,-0.00000263,0.00001159,0.00001729,-0.00002100,-0.00002837,0.0000173
 6,0.00002115,0.00005330,0.00005863,-0.00000110,-0.00002060,-0.00002505
 ,0.00002836,0.00002847,0.00000124,0.00004008,-0.00016315,0.00034534,0.
 00002406,0.00001934,0.00002550,-0.00002935,-0.00002050,-0.00012909,0.0
 0027561,0.00053873,-0.00039311,-0.00052459,-0.00061080,0.00028602,-0.0
 0020932,-0.00013239,-0.00000838,0.00009247,0.00000518,0.00004880,0.000
 09320,-0.00004657,0.00004609,-0.00001260,-0.00000516,-0.00000342,0.000
 01858,0.00000496,0.00001280,-0.00001451,0.00001970,-0.00024457,-0.0000
 4019,-0.00001146,-0.00003329,0.00001206,0.00000306,-0.00000948,-0.0000
 2010,-0.00001097,-0.00005966,-0.00002359,-0.00002358,0.00004109,-0.000
 00619,0.00001896,-0.00000644,-0.00000704,-0.00000267,-0.00000210,-0.00
 000035,-0.00000096,0.00000152,0.00000017,-0.00000087,-0.00000025,0.000
 00262,-0.00022202,-0.00071615,0.00009003,0.00191625,0.00059493,0.00096
 291,-0.00008483,-0.00006378,0.00007443,-0.00021159,0.00000542,-0.00002
 913,-0.00942105,0.00243688,0.02849953,-0.00038190,-0.00012127,-0.00069
 454,0.00026575,0.00032536,0.00005882,0.00006391,0.00005590,-0.00004065
 ,-0.00000933,0.00007326,0.00001535,0.00004622,0.00001480,-0.00005133,0
 .00007605,0.00005364,-0.00002804,0.00036452,-0.00034205,0.00057743,0.0
 0000537,-0.00003825,-0.00001119,-0.00622654,-0.00020624,-0.00142421,0.
 00084782,-0.00099030,0.00077034,-0.09335677,0.01217890,0.10233610,-0.0
 0001318,0.00001766,0.00002289,0.00001406,0.00002594,0.00000906,-0.0000
 0982,-0.00001514,-0.00000922,0.00001234,-0.00002102,-0.00002643,0.0000
 5202,0.00004168,0.00002245,-0.00001486,0.00001026,0.00000123,-0.000002
 45,-0.00001561,-0.00000774,-0.00000072,0.00000134,0.00000601,0.0000049
 4,0.00002297,-0.00000008,-0.00000102,-0.00001441,0.00000626,0.00000775
 ,-0.00001363,-0.00000177,-0.00001138,0.00003837,0.00000122,-0.00005826
 ,0.00027418,0.00004896,-0.00001521,0.00041033,0.00022471,-0.00009671,0
 .00011589,-0.00053350,-0.00000515,-0.00000415,-0.00000384,-0.00002243,
 0.00000540,-0.00000412,-0.00000200,0.00002312,0.00000021,-0.00063410,-
 0.00049003,0.00184824,0.00012316,-0.00018561,-0.00007737,0.00005197,0.
 00017841,-0.00018921,-0.00001348,0.00049850,-0.00057379,-0.00005439,-0
 .00004538,-0.00007272,0.00002933,0.00000530,-0.00039444,0.00235125,-0.
 00026734,-0.00696993,0.09927619,-0.00014204,-0.00266329,0.00275255,0.0
 0042891,-0.00010199,-0.00061968,-0.00016606,0.00018667,0.00000516,-0.0
 0000865,0.00000029,0.00000661,0.00004328,0.00003572,-0.00002009,-0.000
 00987,0.00002006,-0.00000203,0.00003274,-0.00006222,0.00000065,-0.0000
 0584,-0.00000148,0.00003681,0.00000145,0.00001045,0.00000644,0.0000427
 2,-0.00001990,-0.00004187,-0.00004896,-0.00001430,-0.00002856,0.000018
 79,-0.00001594,-0.00001116,0.00003610,0.00002105,-0.00005046,0.0000664
 2,0.00007110,-0.00005025,-0.00000558,0.00024957,0.00009886,0.00017172,
 -0.00010148,-0.00007372,-0.00025959,-0.00004894,-0.00039004,-0.0004099
 5,0.00058672,0.00068601,0.00057331,-0.00025634,0.00017930,0.00004203,-
 0.00008881,-0.00010864,0.00000220,-0.00002423,-0.00007991,0.00003090,-
 0.00005009,0.00000510,-0.00000299,0.00001743,-0.00001391,-0.00000195,0
 .00001065,0.00001785,0.00001523,-0.00019672,-0.00005584,-0.00006904,-0
 .00009100,0.00004589,-0.00002731,-0.00000325,0.00003441,-0.00000885,-0
 .00001035,0.00000435,-0.00004584,0.00006444,-0.00000397,0.00003179,-0.
 00001017,-0.00001011,-0.00000553,-0.00000190,0.00000150,-0.00000143,0.
 00000429,-0.00000095,-0.00000338,-0.00000256,0.00000258,-0.00039415,-0
 .00060942,0.00014566,0.00019821,0.00023861,0.00050652,-0.00005942,-0.0
 0007075,0.00007328,-0.00007742,-0.00010087,0.00012887,-0.00235643,-0.0
 0167745,0.00430879,-0.00014730,0.00015996,-0.00000653,0.00018514,-0.00
 001410,0.00003287,0.00002601,0.00004773,-0.00003148,0.00002017,0.00004
 860,0.00001920,0.00004130,0.00000030,-0.00002970,0.00006939,0.00002848
 ,-0.00001641,-0.00032875,-0.00043198,-0.00043632,0.00004127,0.00009596
 ,-0.00006815,-0.00177414,-0.00008654,0.00003522,0.00009647,-0.00009284
 ,-0.00071752,0.01273010,-0.04472808,-0.02386191,-0.00000413,-0.0000023
 3,0.00000669,0.00002431,0.00001100,0.00000388,-0.00001235,-0.00000578,
 -0.00000012,0.00001150,-0.00000328,-0.00002494,0.00001904,0.00001286,0
 .00000799,-0.00000935,0.00001718,0.00000160,-0.00000746,-0.00001008,-0
 .00000190,-0.00000107,-0.00000797,0.00000687,0.00000601,0.00002172,-0.
 00000672,0.00001597,0.00000739,0.00001430,0.00000548,-0.00001937,-0.00
 000254,-0.00000766,0.00004040,0.00000240,0.00012379,0.00020347,0.00009
 340,0.00043868,-0.00076327,-0.00024805,-0.00016347,0.00007393,-0.00056
 644,-0.00002701,-0.00000576,-0.00001301,-0.00000121,-0.00000462,-0.000
 00878,0.00004850,0.00001905,0.00002583,-0.00039006,0.00042672,0.000493
 63,0.00004806,0.00028732,-0.00029723,0.00001825,0.00005067,0.00027048,
 0.00025461,0.00002978,0.00024180,0.00002870,0.00013453,-0.00004245,-0.
 00007169,-0.00001360,0.00025825,0.01202213,-0.00077755,-0.02577585,-0.
 01094688,0.04736359,0.00079620,0.00097570,-0.00279345,-0.00047628,0.00
 014310,0.00083496,0.00014626,-0.00022036,0.00000944,0.00002618,0.00000
 274,0.00001369,-0.00007895,-0.00003645,-0.00000420,0.00000855,-0.00001
 975,0.00000066,-0.00000280,0.00004035,-0.00000519,-0.00004143,-0.00003
 297,-0.00003370,-0.00000323,0.00000325,-0.00000993,0.00001135,0.000123
 98,0.00001773,0.00001345,0.00004336,0.00001637,0.00000892,0.00005764,0
 .00000875,-0.00002422,-0.00000381,0.00005110,-0.00004094,-0.00001586,0
 .00002580,-0.00008134,0.00031076,0.00007592,-0.00020962,0.00016251,0.0
 0003455,0.00019982,-0.00017792,0.00065829,0.00070284,-0.00066162,-0.00
 111125,-0.00085016,0.00042473,-0.00010063,-0.00012244,0.00005055,0.000
 17530,-0.00004016,0.00006725,0.00014267,-0.00004523,0.00006242,-0.0000
 0555,0.00000630,-0.00003442,0.00003352,0.00000004,0.00000008,-0.000025
 65,0.00005661,-0.00022401,-0.00003383,0.00002135,0.00000769,-0.0000148
 3,0.00003050,-0.00001787,-0.00004686,-0.00000009,-0.00007255,-0.000030
 88,0.00002291,-0.00003963,0.00000656,-0.00001335,0.00000712,0.00000833
 ,0.00000281,-0.00000032,-0.00000299,0.00000105,-0.00000279,0.00000082,
 0.00000227,0.00000308,-0.00000117,0.00023428,0.00015456,0.00020361,-0.
 00055552,-0.00036219,0.00094541,-0.00003883,0.00006467,-0.00010226,-0.
 00007010,0.00018878,-0.00002048,-0.00248051,0.00067655,0.00248215,0.00
 016544,0.00031697,0.00017663,0.00000313,-0.00001409,0.00004968,-0.0000
 2778,-0.00005607,0.00002800,0.00002498,-0.00001881,-0.00001623,-0.0000
 0012,0.00000021,0.00001006,0.00009228,0.00002454,-0.00001245,0.0004392
 3,-0.00119338,-0.00107384,-0.00000597,0.00000876,-0.00001172,0.0003624
 4,-0.00008924,0.00092312,0.00014382,-0.00016651,0.00037213,0.10279851,
 -0.02365563,-0.27947578,-0.00001213,0.00000065,0.00000004,-0.00001875,
 0.00000332,-0.00001035,-0.00000035,0.00000094,0.00000222,-0.00000717,0
 .00001383,0.00000642,-0.00003696,0.00000126,-0.00000346,0.00001687,-0.
 00000663,-0.00001653,-0.00000619,0.00000311,0.00000191,0.00000461,0.00
 000711,0.00000635,-0.00000045,-0.00000448,-0.00000087,-0.00000538,0.00
 000184,0.00000253,-0.00000818,-0.00000560,0.00001087,-0.00001406,0.000
 02148,0.00000909,-0.00009577,-0.00011971,-0.00015720,-0.00018717,-0.00
 016443,-0.00023271,-0.00015086,-0.00047860,-0.00048000,-0.00000274,0.0
 0000500,0.00000373,-0.00000424,0.00000908,-0.00000746,0.00000099,0.000
 00302,0.00000576,0.00007514,-0.00001883,0.00015638,-0.00010218,-0.0001
 6423,0.00008471,-0.00020176,0.00013317,0.00022648,0.00024389,-0.000195
 63,0.00005962,-0.00005779,0.00006962,-0.00000752,0.00010024,-0.0000555
 9,0.00005760,0.00379717,0.00110693,-0.00834392,-0.11186902,0.02747034,
 0.29748296,0.00609137,0.00041057,-0.00007552,0.00042288,0.00083936,0.0
 0095836,-0.00048607,0.00107937,-0.00019881,0.00009186,0.00002555,0.000
 05822,0.00001127,0.00007034,-0.00019919,-0.00002721,0.00006933,-0.0000
 0526,0.00009912,-0.00017251,0.00002376,-0.00031565,-0.00006594,-0.0000
 1982,-0.00002958,0.00008263,-0.00003506,-0.00034068,0.00112057,-0.0001
 6753,-0.00005678,0.00014187,0.00001021,0.00006512,0.00009035,-0.000091
 06,-0.00006474,-0.00004302,0.00002153,-0.00005291,-0.00000947,0.000079
 14,-0.00000187,0.00034835,0.00003661,-0.00133442,0.00000876,0.00060086
 ,-0.00307243,-0.00025718,-0.00161177,-0.00342638,0.00158464,-0.0007836
 9,0.00049284,-0.00112739,0.00001041,0.00017613,-0.00013337,-0.00009620
 ,-0.00007304,0.00003964,-0.00017432,0.00013166,-0.00022344,0.00001378,
 0.00001281,0.00002356,-0.00003891,0.00004584,-0.00005973,0.00005430,0.
 00005601,-0.00025540,-0.00007979,-0.00001207,-0.00003458,0.00000042,0.
 00006806,-0.00004831,-0.00007300,-0.00000958,-0.00011475,-0.00002253,-
 0.00014815,0.00024785,-0.00000254,0.00011834,-0.00002369,-0.00002943,-
 0.00001832,-0.00001065,0.00000629,-0.00000531,0.00001106,-0.00000062,-
 0.00001606,-0.00000174,0.00000883,0.00000283,-0.00077975,-0.00012367,0
 .00079344,0.00041402,0.00068189,-0.00001061,0.00001274,-0.00000489,0.0
 0004657,-0.00000513,0.00013308,-0.01115254,0.01933132,-0.01580759,0.00
 006138,0.00007193,0.00005301,-0.00000021,-0.00030751,0.00018295,0.0000
 0050,0.00000223,0.00001951,0.00003322,-0.00001047,-0.00003353,0.000002
 19,0.00000752,0.00002482,0.00003076,0.00003999,0.00001057,0.00009079,-
 0.00005959,0.00012850,-0.00000756,0.00001539,0.00002173,0.00082809,0.0
 0110017,-0.00159606,-0.00543319,-0.00205265,0.00024839,-0.08450255,0.0
 6527079,-0.06616003,0.00000948,0.00000250,-0.00001407,0.00000598,0.000
 00147,-0.00000219,0.00000220,0.00000316,0.00000843,0.00000532,0.000024
 18,0.00001108,-0.00003106,-0.00000647,-0.00000732,0.00003504,0.0000019
 1,0.00000807,0.00000145,0.00000164,0.00000770,-0.00000633,-0.00001620,
 -0.00001441,0.00000539,-0.00000420,-0.00000523,0.00000850,-0.00000360,
 -0.00002485,0.00001127,-0.00001448,0.00000877,-0.00000283,0.00001255,-
 0.00000041,0.00000064,0.00002714,0.00001479,0.00004742,-0.00001172,0.0
 0000825,-0.00007446,0.00000425,-0.00007135,0.00000459,-0.00000452,0.00
 000642,0.00000291,-0.00000414,0.00000819,0.00000752,0.00000469,0.00000
 022,0.00049958,-0.00022937,-0.00002263,-0.00030850,-0.00068696,0.00073
 847,-0.00012903,0.00013451,0.00015258,0.00011779,-0.00015722,-0.000067
 85,0.00012331,-0.00003557,0.00013449,-0.00082578,0.00146199,-0.0006032
 8,0.00164816,-0.00308643,0.00196935,0.00544075,-0.01000787,0.00742971,
 0.09422549,-0.01745019,-0.03709951,-0.01393241,0.00207516,-0.00658310,
 0.00032993,0.00081191,-0.00509280,0.00142957,-0.00012030,-0.00015314,0
 .00007487,-0.00017475,-0.00018116,0.00030932,0.00004500,-0.00011201,0.
 00000758,-0.00010566,0.00023860,-0.00001714,0.00039552,0.00002817,-0.0
 0014120,0.00004070,-0.00010989,0.00003930,0.00330107,-0.00449998,-0.00
 008749,0.00132528,-0.00071739,-0.00061333,-0.00001788,0.00008922,0.000
 08593,-0.00004996,-0.00002958,0.00008609,-0.00005769,-0.00008626,0.000
 17623,0.00010904,0.00020844,-0.00008160,0.00627942,0.00034473,-0.00057
 724,0.01069387,0.00083698,0.00271224,0.00512533,0.00427523,0.00681579,
 0.00187131,-0.00069362,0.00130450,0.00031785,-0.00022629,-0.00013854,0
 .00019419,-0.00005312,0.00004110,0.00013878,-0.00017471,0.00006222,-0.
 00000011,0.00002501,-0.00001772,0.00004729,-0.00005093,0.00002604,0.00
 007753,-0.00000967,-0.00002351,0.00010812,0.00012760,-0.00009338,0.000
 07454,-0.00001060,-0.00012380,0.00002431,-0.00007607,-0.00008451,0.000
 13758,-0.00025328,0.00000238,-0.00009882,0.00003882,0.00004277,0.00000
 966,0.00000565,-0.00001329,0.00000276,-0.00001713,0.00000442,0.0000182
 8,0.00000700,-0.00001000,-0.00187826,-0.00098044,-0.00101243,-0.000444
 91,0.00129310,-0.00041482,-0.00025205,-0.00008041,-0.00003949,-0.00022
 778,-0.00010007,-0.00075850,-0.00193323,-0.00033502,-0.00405428,-0.000
 12093,0.00004174,0.00006944,0.00014735,-0.00012147,0.00019415,0.000016
 06,0.00001970,-0.00003840,-0.00008536,-0.00000971,0.00007404,0.0000320
 0,-0.00004196,-0.00005100,-0.00000841,-0.00015099,-0.00015962,-0.00006
 929,0.00006690,-0.00051488,-0.00005644,0.00001168,0.00002313,-0.000752
 45,0.00089606,0.00047842,0.00159770,0.00133321,-0.00009445,0.05407014,
 -0.10855287,0.08499153,-0.00004148,0.00001836,0.00001306,0.00001312,0.
 00002095,0.00000398,-0.00001203,-0.00001020,-0.00000521,0.00001326,0.0
 0000979,-0.00000866,-0.00003957,-0.00000260,0.00000646,-0.00007228,-0.
 00005414,0.00002104,-0.00001949,0.00000030,-0.00000704,0.00001472,0.00
 000603,0.00002404,0.,0.00002771,0.00000216,-0.00000391,-0.00010441,-0.
 00004013,-0.00002638,0.00002329,-0.00001224,0.00000398,0.00000825,0.00
 000191,0.00000755,0.00003507,0.00002610,0.00012450,0.00006740,-0.00042
 488,-0.00003134,0.00007095,-0.00002584,0.00001310,0.00000369,0.0000190
 4,-0.00002492,0.00000830,-0.00002680,0.00000698,0.00000857,-0.00000222
 ,-0.00005959,0.00013662,-0.00032513,-0.00003978,0.00032996,-0.00031102
 ,0.00021184,-0.00021135,0.00003443,-0.00028407,0.00000720,-0.00016005,
 -0.00029261,0.00040229,0.00011560,0.00044857,0.00000001,0.00038122,0.0
 1286843,-0.02126617,0.02089716,-0.00388707,0.00259298,-0.00444206,-0.0
 7407483,0.17458650,-0.00140951,-0.02181678,-0.00296532,0.00136106,-0.0
 0122196,0.00147671,-0.00073620,-0.00004142,0.00037145,0.00008647,-0.00
 000274,0.00007760,0.00006790,0.00008422,-0.00029357,-0.00005088,0.0001
 0564,-0.00002038,0.00014359,-0.00038657,0.00007111,-0.00037888,-0.0000
 3752,0.00000276,-0.00004222,0.00011622,-0.00003833,0.00067708,0.000296
 46,-0.00046507,0.00041973,0.00013079,-0.00001623,0.00008681,-0.0001006
 5,-0.00012298,0.00003339,-0.00001812,-0.00009526,0.00013531,0.00011161
 ,-0.00009669,-0.00000494,0.00019244,0.00015279,0.00166289,-0.00026551,
 -0.00062461,-0.00005670,0.00086974,-0.00149606,-0.00253051,0.00373018,
 0.00486012,0.00239613,-0.00167542,-0.00085026,0.00041159,-0.00038400,-
 0.00062407,0.00009655,-0.00011466,-0.00048184,0.00024462,-0.00037125,0
 .00002155,-0.00000431,0.00008560,-0.00011776,0.00001701,0.00003559,0.0
 0010106,-0.00002416,-0.00024282,-0.00009304,-0.00015020,-0.00017698,0.
 00009828,-0.00008958,0.00000694,0.00011852,-0.00001481,0.00001209,0.00
 005211,-0.00026680,0.00048651,-0.00002288,0.00021422,-0.00005627,-0.00
 006208,-0.00003176,-0.00001652,0.00001707,-0.00000951,0.00002434,-0.00
 000334,-0.00003046,-0.00000920,0.00001628,-0.00151651,-0.00055593,-0.0
 0124283,-0.00024647,0.00004431,-0.00039394,0.00003077,-0.00010306,0.00
 018938,0.00012068,-0.00010749,-0.00015745,0.00158810,-0.00080160,0.000
 61243,0.00010469,0.00000606,0.00012698,-0.00003781,-0.00021868,0.00007
 385,0.00002395,0.00007116,-0.00004968,-0.00007805,0.00000132,-0.000002
 80,-0.00002445,-0.00001677,-0.00001415,-0.00008543,-0.00005623,0.00000
 312,-0.00033886,0.00019456,-0.00023901,-0.00004625,0.00000045,0.000046
 72,0.00167116,-0.00041735,0.00050049,0.00084727,-0.00076509,0.00030494
 ,-0.07045761,0.10660807,-0.14997137,0.00002423,-0.00002149,-0.00000194
 ,0.00003747,-0.00000768,0.00001294,-0.00000083,0.00000177,0.00000438,0
 .00001581,-0.00000660,-0.00000363,0.00004972,-0.00000505,0.00001374,-0
 .00003113,0.00000836,0.00005337,0.00001569,-0.00000765,0.00000876,-0.0
 0002718,-0.00003409,-0.00003290,0.00000719,0.00000569,-0.00000435,0.00
 003064,-0.00001929,-0.00007714,0.00002012,0.00000386,0.00003303,0.0000
 0735,-0.00002699,-0.00000784,0.00006323,-0.00007128,0.00002982,0.00008
 574,0.00000151,-0.00009970,0.00013584,-0.00009464,0.00010320,0.0000117
 9,0.00000457,0.00002513,0.00003012,-0.00001262,0.00000498,-0.00000394,
 -0.00000895,-0.00000810,-0.00001063,-0.00026471,-0.00013532,0.00032131
 ,0.00005077,0.00032394,0.00008111,-0.00026526,-0.00002867,0.00012357,-
 0.00013012,0.00013549,0.00001379,0.00007925,0.00000882,0.00012644,-0.0
 0017264,0.00032420,0.00241739,-0.00588283,0.00451315,-0.01169370,0.015
 68528,-0.01122901,0.07437073,-0.09204288,0.15729930\\0.00000492,0.0000
 0219,0.00000033,-0.00000702,0.00000040,0.00000426,0.00000379,-0.000003
 61,-0.00000278,-0.00000130,0.00000052,0.00000058,-0.00000261,-0.000000
 33,0.00000008,-0.00000077,-0.00000028,-0.00000077,-0.00000209,-0.00000
 136,-0.00000427,0.00000085,0.00000005,0.00000016,0.00000015,0.00000003
 ,0.00000127,-0.00000051,0.00000323,0.00000032,0.00000050,-0.00000491,-
 0.00000068,-0.00000047,0.00000306,0.00000438,0.00000081,0.00000040,0.0
 0000085,0.00000179,0.00000118,0.00000136,0.00000006,0.00000097,0.00000
 138,0.00000281,-0.00000369,0.00000250,-0.00000218,-0.00000284,-0.00000
 319,0.00000556,0.00000113,0.00000454,-0.00000472,-0.00000091,0.0000015
 3,-0.00000326,0.00000087,0.00000259,0.00000126,-0.00000420,-0.00000267
 ,-0.00000220,0.00000089,0.00000254,-0.00000124,0.00000100,0.00000026,-
 0.00000221,0.00000031,0.00000117,-0.00000032,-0.00000009,0.00000016,0.
 00000035,-0.00000052,0.00000229,0.00000026,-0.00000029,0.00000234,0.00
 000138,-0.00000186,0.00000028,0.00000337,0.00000167,0.00000686,-0.0000
 0315,-0.00000166,-0.00000279,-0.00000010,-0.00000093,0.00000178,-0.000
 00082,-0.00000048,-0.00000008,0.00000032,0.00000100,0.00000093,0.00000
 284,-0.00000049,-0.00000888,-0.00000256,-0.00000047,-0.00000064,0.0000
 0034,-0.00000062,0.00000248,-0.00000736,0.00000217,0.00000457,0.000000
 03,0.00000251,-0.00000225,0.00000123,-0.00000021,-0.00000119,-0.000000
 45,-0.00000082,-0.00000104,0.00000194,0.00000036,-0.00000131,0.0000003
 3,0.00000005,-0.00000231,0.00000014,0.00000076,-0.00000194,0.00000184,
 -0.00000284,-0.00000161,0.00000332,0.00000060,-0.00000085,0.00000154,-
 0.00000022,-0.00000052,-0.00000285,-0.00000248,0.00000044,0.00000110,-
 0.00000183,0.00000100,-0.00000184,-0.00000159,-0.00000041,0.00000028,0
 .00000175,-0.00000147,-0.00000043,-0.00000046,-0.00000205,-0.00000030,
 0.00000091,-0.00000319,-0.00000151,-0.00000053,-0.00000200,-0.00000083
 ,0.00000180,0.00000015,-0.00000009,0.00000024,-0.00000052,0.00000037,-
 0.00000050,-0.00000135,0.00000078,-0.00000045,-0.00000003,-0.00000045,
 -0.00000026,-0.00000065,0.00000133,0.00000042,0.00000143,0.00000105,0.
 00000082,-0.00000046,0.00000120,0.00000005,-0.00000049,0.00000121,0.00
 000036,-0.00000007,0.00000085,0.00000020,0.00000106,0.00000062,0.00000
 175,-0.00000034,0.00000188,0.00000075,-0.00000088,0.00000047,0.0000007
 9,-0.00000107,0.00000022,0.00000011,-0.00000042,-0.00000086,0.00000036
 ,-0.00000120,-0.00000011,-0.00000076,-0.00000034,0.00000036,0.00000012
 ,0.00000037,0.00000057,0.00000055,-0.00000145,0.00000021,0.00000087,0.
 00000005,-0.00000045,-0.00000008,-0.00000086,0.00000153,0.00000065,0.0
 0000035,0.00000153,0.00000130,0.00000024,-0.00000221,0.00000341,0.0000
 0211\\\@


 THE NUMBERS ARE MEANINGLESS, BUT THE TRENDS ARE IMPORTANT.
     -- LARRY BURGGRAF
 Job cpu time:       0 days 14 hours  9 minutes 19.3 seconds.
 File lengths (MBytes):  RWF=   4782 Int=      0 D2E=      0 Chk=     49 Scr=      1
 Normal termination of Gaussian 09 at Wed Feb 28 17:26:50 2024.
