 Entering Gaussian System, Link 0=g09
 Input=ts-dppBz-released.com
 Output=ts-dppBz-released.log
 Initial command:
 /cluster/software/commercial/gaussian/g09/l1.exe "/cluster/home/rueppf/phd/Pd_red_el/revision_barriers/dppBz/TS/Gau-1638479.inp" -scrdir="/cluster/home/rueppf/phd/Pd_red_el/revision_barriers/dppBz/TS/"
 Entering Link 1 = /cluster/software/commercial/gaussian/g09/l1.exe PID=   1638489.
  
 Copyright (c) 1988,1990,1992,1993,1995,1998,2003,2009,2013,
            Gaussian, Inc.  All Rights Reserved.
  
 This is part of the Gaussian(R) 09 program.  It is based on
 the Gaussian(R) 03 system (copyright 2003, Gaussian, Inc.),
 the Gaussian(R) 98 system (copyright 1998, Gaussian, Inc.),
 the Gaussian(R) 94 system (copyright 1995, Gaussian, Inc.),
 the Gaussian 92(TM) system (copyright 1992, Gaussian, Inc.),
 the Gaussian 90(TM) system (copyright 1990, Gaussian, Inc.),
 the Gaussian 88(TM) system (copyright 1988, Gaussian, Inc.),
 the Gaussian 86(TM) system (copyright 1986, Carnegie Mellon
 University), and the Gaussian 82(TM) system (copyright 1983,
 Carnegie Mellon University). Gaussian is a federally registered
 trademark of Gaussian, Inc.
  
 This software contains proprietary and confidential information,
 including trade secrets, belonging to Gaussian, Inc.
  
 This software is provided under written license and may be
 used, copied, transmitted, or stored only in accord with that
 written license.
  
 The following legend is applicable only to US Government
 contracts under FAR:
  
                    RESTRICTED RIGHTS LEGEND
  
 Use, reproduction and disclosure by the US Government is
 subject to restrictions as set forth in subparagraphs (a)
 and (c) of the Commercial Computer Software - Restricted
 Rights clause in FAR 52.227-19.
  
 Gaussian, Inc.
 340 Quinnipiac St., Bldg. 40, Wallingford CT 06492
  
  
 ---------------------------------------------------------------
 Warning -- This program may not be used in any manner that
 competes with the business of Gaussian, Inc. or will provide
 assistance to any competitor of Gaussian, Inc.  The licensee
 of this program is prohibited from giving any competitor of
 Gaussian, Inc. access to this program.  By using this program,
 the user acknowledges that Gaussian, Inc. is engaged in the
 business of creating and licensing software in the field of
 computational chemistry and represents and warrants to the
 licensee that it is not a competitor of Gaussian, Inc. and that
 it will not use this program in any manner prohibited above.
 ---------------------------------------------------------------
  

 Cite this work as:
 Gaussian 09, Revision D.01,
 M. J. Frisch, G. W. Trucks, H. B. Schlegel, G. E. Scuseria, 
 M. A. Robb, J. R. Cheeseman, G. Scalmani, V. Barone, B. Mennucci, 
 G. A. Petersson, H. Nakatsuji, M. Caricato, X. Li, H. P. Hratchian, 
 A. F. Izmaylov, J. Bloino, G. Zheng, J. L. Sonnenberg, M. Hada, 
 M. Ehara, K. Toyota, R. Fukuda, J. Hasegawa, M. Ishida, T. Nakajima, 
 Y. Honda, O. Kitao, H. Nakai, T. Vreven, J. A. Montgomery, Jr., 
 J. E. Peralta, F. Ogliaro, M. Bearpark, J. J. Heyd, E. Brothers, 
 K. N. Kudin, V. N. Staroverov, T. Keith, R. Kobayashi, J. Normand, 
 K. Raghavachari, A. Rendell, J. C. Burant, S. S. Iyengar, J. Tomasi, 
 M. Cossi, N. Rega, J. M. Millam, M. Klene, J. E. Knox, J. B. Cross, 
 V. Bakken, C. Adamo, J. Jaramillo, R. Gomperts, R. E. Stratmann, 
 O. Yazyev, A. J. Austin, R. Cammi, C. Pomelli, J. W. Ochterski, 
 R. L. Martin, K. Morokuma, V. G. Zakrzewski, G. A. Voth, 
 P. Salvador, J. J. Dannenberg, S. Dapprich, A. D. Daniels, 
 O. Farkas, J. B. Foresman, J. V. Ortiz, J. Cioslowski, 
 and D. J. Fox, Gaussian, Inc., Wallingford CT, 2013.
 
 ******************************************
 Gaussian 09:  ES64L-G09RevD.01 24-Apr-2013
                 4-Jun-2025 
 ******************************************
 %nprocshared=8
 Will use up to    8 processors via shared memory.
 %mem=16GB
 %chk=ts-dppBz-released.chk
 ----------------------------------------------------------------------
 #p opt(ts,calcfc,noeigentest) freq=noraman pbe1pbe genecp temperature=
 298 integral(grid=ultrafine) empiricaldispersion=gd3bj
 ----------------------------------------------------------------------
 1/5=1,10=4,11=1,14=-1,18=20,26=4,38=1,112=298000/1,3;
 2/9=110,12=2,17=6,18=5,40=1/2;
 3/5=7,11=2,16=1,17=8,25=1,30=1,71=2,74=-13,75=-5,124=41,140=1/1,2,3;
 4//1;
 5/5=2,38=5/2;
 8/6=4,10=90,11=11/1;
 11/6=1,8=1,9=11,15=111,16=1/1,2,10;
 10/6=1,13=1/2;
 6/7=2,8=2,9=2,10=2,28=1/1;
 7/10=1,18=20,25=1/1,2,3,16;
 1/5=1,10=4,11=1,14=-1,18=20,26=4/3(2);
 2/9=110/2;
 99//99;
 2/9=110/2;
 3/5=7,6=1,11=2,16=1,17=8,25=1,30=1,71=1,74=-13,75=-5,82=7,124=41/1,2,3;
 4/5=5,16=3,69=1/1;
 5/5=2,38=5/2;
 7//1,2,3,16;
 1/5=1,11=1,14=-1,18=20,26=4/3(-5);
 2/9=110/2;
 6/7=2,8=2,9=2,10=2,19=2,28=1/1;
 99/9=1/99;
 Leave Link    1 at Wed Jun  4 17:46:35 2025, MaxMem=  2147483648 cpu:         0.1
 (Enter /cluster/software/commercial/gaussian/g09/l101.exe)
 -----
 title
 -----
 Symbolic Z-matrix:
 Charge =  0 Multiplicity = 1
 C                    -1.62144   0.49258  -1.0515 
 C                    -1.45757   1.16795  -2.28691 
 H                    -0.70451   0.83291  -3.00239 
 C                    -2.18427   2.32526  -2.50201 
 H                    -2.01713   2.92659  -3.39882 
 C                    -3.13971   2.78763  -1.56961 
 C                    -3.45556   2.00379  -0.46541 
 H                    -4.26965   2.26658   0.20768 
 C                    -2.74059   0.81743  -0.23717 
 C                    -3.06729  -0.26892   0.64819 
 C                    -3.92979  -0.29096   1.74552 
 C                    -4.13061  -1.45972   2.46518 
 C                    -3.451    -2.62677   2.10019 
 C                    -2.56943  -2.63142   1.02197 
 C                    -2.39745  -1.4675    0.26642 
 N                    -1.51589  -1.28271  -0.8103 
 S                    -1.49165  -2.24545  -2.19217 
 O                    -0.41704  -1.69958  -3.00705 
 O                    -1.54531  -3.65509  -1.86153 
 C                    -3.07504  -1.78294  -2.93086 
 Cl                   -3.34161  -2.64645  -4.43861 
 H                    -3.04954  -0.69871  -3.10628 
 H                    -3.85446  -2.04456  -2.20228 
 F                    -1.87727  -3.73558   0.79615 
 F                    -3.60859  -3.72261   2.826 
 F                    -4.93846  -1.47631   3.51363 
 F                    -4.5581    0.81698   2.13939 
 O                    -3.72818   3.97204  -1.86319 
 C                    -4.62761   4.50197  -0.93462 
 H                    -4.16194   4.61966   0.06138 
 H                    -5.53129   3.87459  -0.82672 
 H                    -4.92897   5.48865  -1.30983 
 Pd                    0.18107  -0.16824  -0.2991 
 P                     2.26507  -1.12776   0.30015 
 P                     1.05768   1.6954    0.69411 
 C                     2.15554   1.06253   2.01457 
 C                     2.68407  -0.23865   1.85614 
 C                     2.09686   2.73444  -0.37589 
 C                     3.46596   2.91384  -0.15794 
 H                     3.93773   2.4832    0.72773 
 C                     4.23192   3.62654  -1.07905 
 H                     5.30388   3.74976  -0.90853 
 C                     3.63609   4.17469  -2.21262 
 H                     4.23945   4.73266  -2.9326 
 C                     2.26789   4.00407  -2.43059 
 H                     1.79643   4.42819  -3.32035 
 C                     1.50151   3.27807  -1.52471 
 H                     0.4355    3.11969  -1.71058 
 C                    -0.11251   2.8187    1.51418 
 C                    -1.13644   2.21925   2.26235 
 H                    -1.15799   1.13037   2.36699 
 C                    -2.12933   2.99886   2.84621 
 H                    -2.93041   2.51962   3.4125 
 C                    -2.11982   4.38327   2.67094 
 H                    -2.90694   4.99578   3.11757 
 C                    -1.10654   4.98481   1.92433 
 H                    -1.09581   6.06902   1.78873 
 C                    -0.10305   4.20825   1.34772 
 H                     0.68566   4.68165   0.7585 
 C                     2.62762  -2.87941   0.64842 
 C                     1.53876  -3.67804   1.02119 
 H                     0.53555  -3.24671   1.05931 
 C                     1.72367  -5.02869   1.30521 
 H                     0.8646   -5.64237   1.58519 
 C                     2.99441  -5.59369   1.20593 
 H                     3.13871  -6.65566   1.41877 
 C                     4.07884  -4.80808   0.81419 
 H                     5.07184  -5.25405   0.71885 
 C                     3.89881  -3.45536   0.53273 
 H                     4.74725  -2.84879   0.20713 
 C                     3.5731   -0.55327  -0.84025 
 C                     4.86671  -0.22423  -0.41754 
 H                     5.13959  -0.32678   0.63611 
 C                     5.79924   0.26288  -1.33038 
 H                     6.80641   0.52055  -0.99359 
 C                     5.44234   0.43657  -2.66727 
 H                     6.17026   0.83192  -3.37986 
 C                     4.15433   0.11462  -3.09293 
 H                     3.86963   0.25653  -4.13787 
 C                     3.22092  -0.38033  -2.18492 
 H                     2.20499  -0.62528  -2.51128 
 C                     3.46504  -0.78835   2.8763 
 C                     3.73204  -0.05587   4.03255 
 C                     3.22022   1.23269   4.18167 
 C                     2.43161   1.78888   3.17616 
 H                     2.0088    2.78958   3.29786 
 H                     4.33838  -0.49916   4.82609 
 H                     3.42528   1.80315   5.09053 
 H                     3.85445  -1.80411   2.76958 
 
 NAtoms=     89 NQM=       89 NQMF=       0 NMMI=      0 NMMIF=      0
                NMic=       0 NMicF=      0.
                    Isotopes and Nuclear Properties:
 (Nuclear quadrupole moments (NQMom) in fm**2, nuclear magnetic moments (NMagM)
  in nuclear magnetons)

  Atom         1           2           3           4           5           6           7           8           9          10
 IAtWgt=          12          12           1          12           1          12          12           1          12          12
 AtmWgt=  12.0000000  12.0000000   1.0078250  12.0000000   1.0078250  12.0000000  12.0000000   1.0078250  12.0000000  12.0000000
 NucSpn=           0           0           1           0           1           0           0           1           0           0
 AtZEff=   0.0000000   0.0000000   0.0000000   0.0000000   0.0000000   0.0000000   0.0000000   0.0000000   0.0000000   0.0000000
 NQMom=    0.0000000   0.0000000   0.0000000   0.0000000   0.0000000   0.0000000   0.0000000   0.0000000   0.0000000   0.0000000
 NMagM=    0.0000000   0.0000000   2.7928460   0.0000000   2.7928460   0.0000000   0.0000000   2.7928460   0.0000000   0.0000000
 AtZNuc=   6.0000000   6.0000000   1.0000000   6.0000000   1.0000000   6.0000000   6.0000000   1.0000000   6.0000000   6.0000000

  Atom        11          12          13          14          15          16          17          18          19          20
 IAtWgt=          12          12          12          12          12          14          32          16          16          12
 AtmWgt=  12.0000000  12.0000000  12.0000000  12.0000000  12.0000000  14.0030740  31.9720718  15.9949146  15.9949146  12.0000000
 NucSpn=           0           0           0           0           0           2           0           0           0           0
 AtZEff=   0.0000000   0.0000000   0.0000000   0.0000000   0.0000000   0.0000000   0.0000000   0.0000000   0.0000000   0.0000000
 NQMom=    0.0000000   0.0000000   0.0000000   0.0000000   0.0000000   2.0440000   0.0000000   0.0000000   0.0000000   0.0000000
 NMagM=    0.0000000   0.0000000   0.0000000   0.0000000   0.0000000   0.4037610   0.0000000   0.0000000   0.0000000   0.0000000
 AtZNuc=   6.0000000   6.0000000   6.0000000   6.0000000   6.0000000   7.0000000  16.0000000   8.0000000   8.0000000   6.0000000

  Atom        21          22          23          24          25          26          27          28          29          30
 IAtWgt=          35           1           1          19          19          19          19          16          12           1
 AtmWgt=  34.9688527   1.0078250   1.0078250  18.9984032  18.9984032  18.9984032  18.9984032  15.9949146  12.0000000   1.0078250
 NucSpn=           3           1           1           1           1           1           1           0           0           1
 AtZEff=   0.0000000   0.0000000   0.0000000   0.0000000   0.0000000   0.0000000   0.0000000   0.0000000   0.0000000   0.0000000
 NQMom=   -8.1650000   0.0000000   0.0000000   0.0000000   0.0000000   0.0000000   0.0000000   0.0000000   0.0000000   0.0000000
 NMagM=    0.8218740   2.7928460   2.7928460   2.6288670   2.6288670   2.6288670   2.6288670   0.0000000   0.0000000   2.7928460
 AtZNuc=  17.0000000   1.0000000   1.0000000   9.0000000   9.0000000   9.0000000   9.0000000   8.0000000   6.0000000   1.0000000

  Atom        31          32          33          34          35          36          37          38          39          40
 IAtWgt=           1           1         106          31          31          12          12          12          12           1
 AtmWgt=   1.0078250   1.0078250 105.9032000  30.9737634  30.9737634  12.0000000  12.0000000  12.0000000  12.0000000   1.0078250
 NucSpn=           1           1           0           1           1           0           0           0           0           1
 AtZEff=   0.0000000   0.0000000   0.0000000   0.0000000   0.0000000   0.0000000   0.0000000   0.0000000   0.0000000   0.0000000
 NQMom=    0.0000000   0.0000000   0.0000000   0.0000000   0.0000000   0.0000000   0.0000000   0.0000000   0.0000000   0.0000000
 NMagM=    2.7928460   2.7928460   0.0000000   1.1316000   1.1316000   0.0000000   0.0000000   0.0000000   0.0000000   2.7928460
 AtZNuc=   1.0000000   1.0000000  46.0000000  15.0000000  15.0000000   6.0000000   6.0000000   6.0000000   6.0000000   1.0000000

  Atom        41          42          43          44          45          46          47          48          49          50
 IAtWgt=          12           1          12           1          12           1          12           1          12          12
 AtmWgt=  12.0000000   1.0078250  12.0000000   1.0078250  12.0000000   1.0078250  12.0000000   1.0078250  12.0000000  12.0000000
 NucSpn=           0           1           0           1           0           1           0           1           0           0
 AtZEff=   0.0000000   0.0000000   0.0000000   0.0000000   0.0000000   0.0000000   0.0000000   0.0000000   0.0000000   0.0000000
 NQMom=    0.0000000   0.0000000   0.0000000   0.0000000   0.0000000   0.0000000   0.0000000   0.0000000   0.0000000   0.0000000
 NMagM=    0.0000000   2.7928460   0.0000000   2.7928460   0.0000000   2.7928460   0.0000000   2.7928460   0.0000000   0.0000000
 AtZNuc=   6.0000000   1.0000000   6.0000000   1.0000000   6.0000000   1.0000000   6.0000000   1.0000000   6.0000000   6.0000000

  Atom        51          52          53          54          55          56          57          58          59          60
 IAtWgt=           1          12           1          12           1          12           1          12           1          12
 AtmWgt=   1.0078250  12.0000000   1.0078250  12.0000000   1.0078250  12.0000000   1.0078250  12.0000000   1.0078250  12.0000000
 NucSpn=           1           0           1           0           1           0           1           0           1           0
 AtZEff=   0.0000000   0.0000000   0.0000000   0.0000000   0.0000000   0.0000000   0.0000000   0.0000000   0.0000000   0.0000000
 NQMom=    0.0000000   0.0000000   0.0000000   0.0000000   0.0000000   0.0000000   0.0000000   0.0000000   0.0000000   0.0000000
 NMagM=    2.7928460   0.0000000   2.7928460   0.0000000   2.7928460   0.0000000   2.7928460   0.0000000   2.7928460   0.0000000
 AtZNuc=   1.0000000   6.0000000   1.0000000   6.0000000   1.0000000   6.0000000   1.0000000   6.0000000   1.0000000   6.0000000

  Atom        61          62          63          64          65          66          67          68          69          70
 IAtWgt=          12           1          12           1          12           1          12           1          12           1
 AtmWgt=  12.0000000   1.0078250  12.0000000   1.0078250  12.0000000   1.0078250  12.0000000   1.0078250  12.0000000   1.0078250
 NucSpn=           0           1           0           1           0           1           0           1           0           1
 AtZEff=   0.0000000   0.0000000   0.0000000   0.0000000   0.0000000   0.0000000   0.0000000   0.0000000   0.0000000   0.0000000
 NQMom=    0.0000000   0.0000000   0.0000000   0.0000000   0.0000000   0.0000000   0.0000000   0.0000000   0.0000000   0.0000000
 NMagM=    0.0000000   2.7928460   0.0000000   2.7928460   0.0000000   2.7928460   0.0000000   2.7928460   0.0000000   2.7928460
 AtZNuc=   6.0000000   1.0000000   6.0000000   1.0000000   6.0000000   1.0000000   6.0000000   1.0000000   6.0000000   1.0000000

  Atom        71          72          73          74          75          76          77          78          79          80
 IAtWgt=          12          12           1          12           1          12           1          12           1          12
 AtmWgt=  12.0000000  12.0000000   1.0078250  12.0000000   1.0078250  12.0000000   1.0078250  12.0000000   1.0078250  12.0000000
 NucSpn=           0           0           1           0           1           0           1           0           1           0
 AtZEff=   0.0000000   0.0000000   0.0000000   0.0000000   0.0000000   0.0000000   0.0000000   0.0000000   0.0000000   0.0000000
 NQMom=    0.0000000   0.0000000   0.0000000   0.0000000   0.0000000   0.0000000   0.0000000   0.0000000   0.0000000   0.0000000
 NMagM=    0.0000000   0.0000000   2.7928460   0.0000000   2.7928460   0.0000000   2.7928460   0.0000000   2.7928460   0.0000000
 AtZNuc=   6.0000000   6.0000000   1.0000000   6.0000000   1.0000000   6.0000000   1.0000000   6.0000000   1.0000000   6.0000000

  Atom        81          82          83          84          85          86          87          88          89
 IAtWgt=           1          12          12          12          12           1           1           1           1
 AtmWgt=   1.0078250  12.0000000  12.0000000  12.0000000  12.0000000   1.0078250   1.0078250   1.0078250   1.0078250
 NucSpn=           1           0           0           0           0           1           1           1           1
 AtZEff=   0.0000000   0.0000000   0.0000000   0.0000000   0.0000000   0.0000000   0.0000000   0.0000000   0.0000000
 NQMom=    0.0000000   0.0000000   0.0000000   0.0000000   0.0000000   0.0000000   0.0000000   0.0000000   0.0000000
 NMagM=    2.7928460   0.0000000   0.0000000   0.0000000   0.0000000   2.7928460   2.7928460   2.7928460   2.7928460
 AtZNuc=   1.0000000   6.0000000   6.0000000   6.0000000   6.0000000   1.0000000   1.0000000   1.0000000   1.0000000
 Leave Link  101 at Wed Jun  4 17:46:35 2025, MaxMem=  2147483648 cpu:         0.1
 (Enter /cluster/software/commercial/gaussian/g09/l103.exe)

 GradGradGradGradGradGradGradGradGradGradGradGradGradGradGradGradGradGrad
 Berny optimization.
 Initialization pass.
                           ----------------------------
                           !    Initial Parameters    !
                           ! (Angstroms and Degrees)  !
 --------------------------                            --------------------------
 ! Name  Definition              Value          Derivative Info.                !
 --------------------------------------------------------------------------------
 ! R1    R(1,2)                  1.4175         calculate D2E/DX2 analytically  !
 ! R2    R(1,9)                  1.4217         calculate D2E/DX2 analytically  !
 ! R3    R(1,33)                 2.062          calculate D2E/DX2 analytically  !
 ! R4    R(2,3)                  1.0915         calculate D2E/DX2 analytically  !
 ! R5    R(2,4)                  1.3834         calculate D2E/DX2 analytically  !
 ! R6    R(4,5)                  1.0926         calculate D2E/DX2 analytically  !
 ! R7    R(4,6)                  1.4128         calculate D2E/DX2 analytically  !
 ! R8    R(6,7)                  1.3905         calculate D2E/DX2 analytically  !
 ! R9    R(6,28)                 1.3547         calculate D2E/DX2 analytically  !
 ! R10   R(7,8)                  1.0885         calculate D2E/DX2 analytically  !
 ! R11   R(7,9)                  1.4038         calculate D2E/DX2 analytically  !
 ! R12   R(9,10)                 1.439          calculate D2E/DX2 analytically  !
 ! R13   R(10,11)                1.3959         calculate D2E/DX2 analytically  !
 ! R14   R(10,15)                1.4251         calculate D2E/DX2 analytically  !
 ! R15   R(11,12)                1.3872         calculate D2E/DX2 analytically  !
 ! R16   R(11,27)                1.3332         calculate D2E/DX2 analytically  !
 ! R17   R(12,13)                1.399          calculate D2E/DX2 analytically  !
 ! R18   R(12,26)                1.3237         calculate D2E/DX2 analytically  !
 ! R19   R(13,14)                1.3927         calculate D2E/DX2 analytically  !
 ! R20   R(13,25)                1.3238         calculate D2E/DX2 analytically  !
 ! R21   R(14,15)                1.3983         calculate D2E/DX2 analytically  !
 ! R22   R(14,24)                1.3226         calculate D2E/DX2 analytically  !
 ! R23   R(15,16)                1.4038         calculate D2E/DX2 analytically  !
 ! R24   R(16,17)                1.6843         calculate D2E/DX2 analytically  !
 ! R25   R(16,33)                2.0936         calculate D2E/DX2 analytically  !
 ! R26   R(17,18)                1.4549         calculate D2E/DX2 analytically  !
 ! R27   R(17,19)                1.4489         calculate D2E/DX2 analytically  !
 ! R28   R(17,20)                1.8074         calculate D2E/DX2 analytically  !
 ! R29   R(20,21)                1.7578         calculate D2E/DX2 analytically  !
 ! R30   R(20,22)                1.0986         calculate D2E/DX2 analytically  !
 ! R31   R(20,23)                1.0985         calculate D2E/DX2 analytically  !
 ! R32   R(28,29)                1.3972         calculate D2E/DX2 analytically  !
 ! R33   R(29,30)                1.1058         calculate D2E/DX2 analytically  !
 ! R34   R(29,31)                1.1054         calculate D2E/DX2 analytically  !
 ! R35   R(29,32)                1.0978         calculate D2E/DX2 analytically  !
 ! R36   R(33,34)                2.3713         calculate D2E/DX2 analytically  !
 ! R37   R(33,35)                2.2865         calculate D2E/DX2 analytically  !
 ! R38   R(34,37)                1.8404         calculate D2E/DX2 analytically  !
 ! R39   R(34,60)                1.8224         calculate D2E/DX2 analytically  !
 ! R40   R(34,71)                1.828          calculate D2E/DX2 analytically  !
 ! R41   R(35,36)                1.8301         calculate D2E/DX2 analytically  !
 ! R42   R(35,38)                1.8178         calculate D2E/DX2 analytically  !
 ! R43   R(35,49)                1.8176         calculate D2E/DX2 analytically  !
 ! R44   R(36,37)                1.4133         calculate D2E/DX2 analytically  !
 ! R45   R(36,85)                1.3975         calculate D2E/DX2 analytically  !
 ! R46   R(37,82)                1.3974         calculate D2E/DX2 analytically  !
 ! R47   R(38,39)                1.3979         calculate D2E/DX2 analytically  !
 ! R48   R(38,47)                1.4035         calculate D2E/DX2 analytically  !
 ! R49   R(39,40)                1.092          calculate D2E/DX2 analytically  !
 ! R50   R(39,41)                1.3939         calculate D2E/DX2 analytically  !
 ! R51   R(41,42)                1.0924         calculate D2E/DX2 analytically  !
 ! R52   R(41,43)                1.393          calculate D2E/DX2 analytically  !
 ! R53   R(43,44)                1.0926         calculate D2E/DX2 analytically  !
 ! R54   R(43,45)                1.3959         calculate D2E/DX2 analytically  !
 ! R55   R(45,46)                1.0926         calculate D2E/DX2 analytically  !
 ! R56   R(45,47)                1.3911         calculate D2E/DX2 analytically  !
 ! R57   R(47,48)                1.0936         calculate D2E/DX2 analytically  !
 ! R58   R(49,50)                1.4027         calculate D2E/DX2 analytically  !
 ! R59   R(49,58)                1.3995         calculate D2E/DX2 analytically  !
 ! R60   R(50,51)                1.0941         calculate D2E/DX2 analytically  !
 ! R61   R(50,52)                1.3909         calculate D2E/DX2 analytically  !
 ! R62   R(52,53)                1.0918         calculate D2E/DX2 analytically  !
 ! R63   R(52,54)                1.3955         calculate D2E/DX2 analytically  !
 ! R64   R(54,55)                1.0928         calculate D2E/DX2 analytically  !
 ! R65   R(54,56)                1.395          calculate D2E/DX2 analytically  !
 ! R66   R(56,57)                1.0927         calculate D2E/DX2 analytically  !
 ! R67   R(56,58)                1.3937         calculate D2E/DX2 analytically  !
 ! R68   R(58,59)                1.0924         calculate D2E/DX2 analytically  !
 ! R69   R(60,61)                1.4009         calculate D2E/DX2 analytically  !
 ! R70   R(60,69)                1.4004         calculate D2E/DX2 analytically  !
 ! R71   R(61,62)                1.0927         calculate D2E/DX2 analytically  !
 ! R72   R(61,63)                1.3925         calculate D2E/DX2 analytically  !
 ! R73   R(63,64)                1.0923         calculate D2E/DX2 analytically  !
 ! R74   R(63,65)                1.3942         calculate D2E/DX2 analytically  !
 ! R75   R(65,66)                1.0927         calculate D2E/DX2 analytically  !
 ! R76   R(65,67)                1.3952         calculate D2E/DX2 analytically  !
 ! R77   R(67,68)                1.0927         calculate D2E/DX2 analytically  !
 ! R78   R(67,69)                1.3934         calculate D2E/DX2 analytically  !
 ! R79   R(69,70)                1.0926         calculate D2E/DX2 analytically  !
 ! R80   R(71,72)                1.4001         calculate D2E/DX2 analytically  !
 ! R81   R(71,80)                1.4007         calculate D2E/DX2 analytically  !
 ! R82   R(72,73)                1.0932         calculate D2E/DX2 analytically  !
 ! R83   R(72,74)                1.3929         calculate D2E/DX2 analytically  !
 ! R84   R(74,75)                1.0928         calculate D2E/DX2 analytically  !
 ! R85   R(74,76)                1.3946         calculate D2E/DX2 analytically  !
 ! R86   R(76,77)                1.0927         calculate D2E/DX2 analytically  !
 ! R87   R(76,78)                1.3942         calculate D2E/DX2 analytically  !
 ! R88   R(78,79)                1.0923         calculate D2E/DX2 analytically  !
 ! R89   R(78,80)                1.3931         calculate D2E/DX2 analytically  !
 ! R90   R(80,81)                1.0948         calculate D2E/DX2 analytically  !
 ! R91   R(82,83)                1.3945         calculate D2E/DX2 analytically  !
 ! R92   R(82,89)                1.0931         calculate D2E/DX2 analytically  !
 ! R93   R(83,84)                1.3945         calculate D2E/DX2 analytically  !
 ! R94   R(83,87)                1.0926         calculate D2E/DX2 analytically  !
 ! R95   R(84,85)                1.3937         calculate D2E/DX2 analytically  !
 ! R96   R(84,88)                1.0925         calculate D2E/DX2 analytically  !
 ! R97   R(85,86)                1.0932         calculate D2E/DX2 analytically  !
 ! A1    A(2,1,9)              118.7744         calculate D2E/DX2 analytically  !
 ! A2    A(2,1,33)             111.6945         calculate D2E/DX2 analytically  !
 ! A3    A(9,1,33)             123.5297         calculate D2E/DX2 analytically  !
 ! A4    A(1,2,3)              120.3208         calculate D2E/DX2 analytically  !
 ! A5    A(1,2,4)              118.2544         calculate D2E/DX2 analytically  !
 ! A6    A(3,2,4)              121.1529         calculate D2E/DX2 analytically  !
 ! A7    A(2,4,5)              120.5096         calculate D2E/DX2 analytically  !
 ! A8    A(2,4,6)              121.7645         calculate D2E/DX2 analytically  !
 ! A9    A(5,4,6)              117.7121         calculate D2E/DX2 analytically  !
 ! A10   A(4,6,7)              119.552          calculate D2E/DX2 analytically  !
 ! A11   A(4,6,28)             115.9044         calculate D2E/DX2 analytically  !
 ! A12   A(7,6,28)             124.4899         calculate D2E/DX2 analytically  !
 ! A13   A(6,7,8)              121.6576         calculate D2E/DX2 analytically  !
 ! A14   A(6,7,9)              119.3283         calculate D2E/DX2 analytically  !
 ! A15   A(8,7,9)              118.9729         calculate D2E/DX2 analytically  !
 ! A16   A(1,9,7)              120.0596         calculate D2E/DX2 analytically  !
 ! A17   A(1,9,10)             111.0166         calculate D2E/DX2 analytically  !
 ! A18   A(7,9,10)             128.4904         calculate D2E/DX2 analytically  !
 ! A19   A(9,10,11)            129.4834         calculate D2E/DX2 analytically  !
 ! A20   A(9,10,15)            111.3084         calculate D2E/DX2 analytically  !
 ! A21   A(11,10,15)           119.1913         calculate D2E/DX2 analytically  !
 ! A22   A(10,11,12)           120.7025         calculate D2E/DX2 analytically  !
 ! A23   A(10,11,27)           120.6854         calculate D2E/DX2 analytically  !
 ! A24   A(12,11,27)           118.5998         calculate D2E/DX2 analytically  !
 ! A25   A(11,12,13)           119.8149         calculate D2E/DX2 analytically  !
 ! A26   A(11,12,26)           120.6532         calculate D2E/DX2 analytically  !
 ! A27   A(13,12,26)           119.5162         calculate D2E/DX2 analytically  !
 ! A28   A(12,13,14)           120.8143         calculate D2E/DX2 analytically  !
 ! A29   A(12,13,25)           119.3204         calculate D2E/DX2 analytically  !
 ! A30   A(14,13,25)           119.8041         calculate D2E/DX2 analytically  !
 ! A31   A(13,14,15)           119.5638         calculate D2E/DX2 analytically  !
 ! A32   A(13,14,24)           117.7895         calculate D2E/DX2 analytically  !
 ! A33   A(15,14,24)           122.5683         calculate D2E/DX2 analytically  !
 ! A34   A(10,15,14)           119.8356         calculate D2E/DX2 analytically  !
 ! A35   A(10,15,16)           112.95           calculate D2E/DX2 analytically  !
 ! A36   A(14,15,16)           126.9603         calculate D2E/DX2 analytically  !
 ! A37   A(15,16,17)           124.2685         calculate D2E/DX2 analytically  !
 ! A38   A(15,16,33)           113.0672         calculate D2E/DX2 analytically  !
 ! A39   A(17,16,33)           119.5332         calculate D2E/DX2 analytically  !
 ! A40   A(16,17,18)           104.8142         calculate D2E/DX2 analytically  !
 ! A41   A(16,17,19)           111.6131         calculate D2E/DX2 analytically  !
 ! A42   A(16,17,20)           100.1623         calculate D2E/DX2 analytically  !
 ! A43   A(18,17,19)           121.3449         calculate D2E/DX2 analytically  !
 ! A44   A(18,17,20)           108.7927         calculate D2E/DX2 analytically  !
 ! A45   A(19,17,20)           108.0465         calculate D2E/DX2 analytically  !
 ! A46   A(17,20,21)           110.959          calculate D2E/DX2 analytically  !
 ! A47   A(17,20,22)           107.3052         calculate D2E/DX2 analytically  !
 ! A48   A(17,20,23)           106.8316         calculate D2E/DX2 analytically  !
 ! A49   A(21,20,22)           110.571          calculate D2E/DX2 analytically  !
 ! A50   A(21,20,23)           110.1385         calculate D2E/DX2 analytically  !
 ! A51   A(22,20,23)           110.9409         calculate D2E/DX2 analytically  !
 ! A52   A(6,28,29)            117.8539         calculate D2E/DX2 analytically  !
 ! A53   A(28,29,30)           111.5863         calculate D2E/DX2 analytically  !
 ! A54   A(28,29,31)           112.0794         calculate D2E/DX2 analytically  !
 ! A55   A(28,29,32)           106.8862         calculate D2E/DX2 analytically  !
 ! A56   A(30,29,31)           108.4675         calculate D2E/DX2 analytically  !
 ! A57   A(30,29,32)           109.1352         calculate D2E/DX2 analytically  !
 ! A58   A(31,29,32)           108.6065         calculate D2E/DX2 analytically  !
 ! A59   A(1,33,16)             51.1672         calculate D2E/DX2 analytically  !
 ! A60   A(1,33,35)            103.4401         calculate D2E/DX2 analytically  !
 ! A61   A(16,33,34)           123.9638         calculate D2E/DX2 analytically  !
 ! A62   A(16,33,35)           148.2883         calculate D2E/DX2 analytically  !
 ! A63   A(34,33,35)            83.2864         calculate D2E/DX2 analytically  !
 ! A64   A(33,34,37)           102.6068         calculate D2E/DX2 analytically  !
 ! A65   A(33,34,60)           127.7404         calculate D2E/DX2 analytically  !
 ! A66   A(33,34,71)           110.1239         calculate D2E/DX2 analytically  !
 ! A67   A(37,34,60)           104.921          calculate D2E/DX2 analytically  !
 ! A68   A(37,34,71)           102.281          calculate D2E/DX2 analytically  !
 ! A69   A(60,34,71)           106.1975         calculate D2E/DX2 analytically  !
 ! A70   A(33,35,36)           105.1615         calculate D2E/DX2 analytically  !
 ! A71   A(33,35,38)           115.4276         calculate D2E/DX2 analytically  !
 ! A72   A(33,35,49)           116.9283         calculate D2E/DX2 analytically  !
 ! A73   A(36,35,38)           106.2258         calculate D2E/DX2 analytically  !
 ! A74   A(36,35,49)           105.9254         calculate D2E/DX2 analytically  !
 ! A75   A(38,35,49)           106.2824         calculate D2E/DX2 analytically  !
 ! A76   A(35,36,37)           117.5043         calculate D2E/DX2 analytically  !
 ! A77   A(35,36,85)           122.5798         calculate D2E/DX2 analytically  !
 ! A78   A(37,36,85)           119.8537         calculate D2E/DX2 analytically  !
 ! A79   A(34,37,36)           117.026          calculate D2E/DX2 analytically  !
 ! A80   A(34,37,82)           123.6689         calculate D2E/DX2 analytically  !
 ! A81   A(36,37,82)           119.2956         calculate D2E/DX2 analytically  !
 ! A82   A(35,38,39)           122.7842         calculate D2E/DX2 analytically  !
 ! A83   A(35,38,47)           117.4336         calculate D2E/DX2 analytically  !
 ! A84   A(39,38,47)           119.562          calculate D2E/DX2 analytically  !
 ! A85   A(38,39,40)           119.9318         calculate D2E/DX2 analytically  !
 ! A86   A(38,39,41)           120.0506         calculate D2E/DX2 analytically  !
 ! A87   A(40,39,41)           120.0122         calculate D2E/DX2 analytically  !
 ! A88   A(39,41,42)           119.5859         calculate D2E/DX2 analytically  !
 ! A89   A(39,41,43)           120.2571         calculate D2E/DX2 analytically  !
 ! A90   A(42,41,43)           120.1566         calculate D2E/DX2 analytically  !
 ! A91   A(41,43,44)           120.0655         calculate D2E/DX2 analytically  !
 ! A92   A(41,43,45)           119.8815         calculate D2E/DX2 analytically  !
 ! A93   A(44,43,45)           120.0521         calculate D2E/DX2 analytically  !
 ! A94   A(43,45,46)           120.1751         calculate D2E/DX2 analytically  !
 ! A95   A(43,45,47)           120.139          calculate D2E/DX2 analytically  !
 ! A96   A(46,45,47)           119.6805         calculate D2E/DX2 analytically  !
 ! A97   A(38,47,45)           120.0998         calculate D2E/DX2 analytically  !
 ! A98   A(38,47,48)           119.7692         calculate D2E/DX2 analytically  !
 ! A99   A(45,47,48)           120.1277         calculate D2E/DX2 analytically  !
 ! A100  A(35,49,50)           116.5199         calculate D2E/DX2 analytically  !
 ! A101  A(35,49,58)           123.7517         calculate D2E/DX2 analytically  !
 ! A102  A(50,49,58)           119.5176         calculate D2E/DX2 analytically  !
 ! A103  A(49,50,51)           119.3871         calculate D2E/DX2 analytically  !
 ! A104  A(49,50,52)           120.3623         calculate D2E/DX2 analytically  !
 ! A105  A(51,50,52)           120.2406         calculate D2E/DX2 analytically  !
 ! A106  A(50,52,53)           119.7004         calculate D2E/DX2 analytically  !
 ! A107  A(50,52,54)           119.8992         calculate D2E/DX2 analytically  !
 ! A108  A(53,52,54)           120.3706         calculate D2E/DX2 analytically  !
 ! A109  A(52,54,55)           119.9868         calculate D2E/DX2 analytically  !
 ! A110  A(52,54,56)           119.9976         calculate D2E/DX2 analytically  !
 ! A111  A(55,54,56)           120.0156         calculate D2E/DX2 analytically  !
 ! A112  A(54,56,57)           120.0933         calculate D2E/DX2 analytically  !
 ! A113  A(54,56,58)           120.2741         calculate D2E/DX2 analytically  !
 ! A114  A(57,56,58)           119.6326         calculate D2E/DX2 analytically  !
 ! A115  A(49,58,56)           119.943          calculate D2E/DX2 analytically  !
 ! A116  A(49,58,59)           119.9539         calculate D2E/DX2 analytically  !
 ! A117  A(56,58,59)           120.1008         calculate D2E/DX2 analytically  !
 ! A118  A(34,60,61)           116.3718         calculate D2E/DX2 analytically  !
 ! A119  A(34,60,69)           124.0647         calculate D2E/DX2 analytically  !
 ! A120  A(61,60,69)           119.5445         calculate D2E/DX2 analytically  !
 ! A121  A(60,61,62)           119.8606         calculate D2E/DX2 analytically  !
 ! A122  A(60,61,63)           120.2659         calculate D2E/DX2 analytically  !
 ! A123  A(62,61,63)           119.8465         calculate D2E/DX2 analytically  !
 ! A124  A(61,63,64)           119.5245         calculate D2E/DX2 analytically  !
 ! A125  A(61,63,65)           119.9714         calculate D2E/DX2 analytically  !
 ! A126  A(64,63,65)           120.4924         calculate D2E/DX2 analytically  !
 ! A127  A(63,65,66)           120.0239         calculate D2E/DX2 analytically  !
 ! A128  A(63,65,67)           120.0145         calculate D2E/DX2 analytically  !
 ! A129  A(66,65,67)           119.9539         calculate D2E/DX2 analytically  !
 ! A130  A(65,67,68)           120.0671         calculate D2E/DX2 analytically  !
 ! A131  A(65,67,69)           120.1943         calculate D2E/DX2 analytically  !
 ! A132  A(68,67,69)           119.7366         calculate D2E/DX2 analytically  !
 ! A133  A(60,69,67)           119.9924         calculate D2E/DX2 analytically  !
 ! A134  A(60,69,70)           120.0787         calculate D2E/DX2 analytically  !
 ! A135  A(67,69,70)           119.9222         calculate D2E/DX2 analytically  !
 ! A136  A(34,71,72)           123.1361         calculate D2E/DX2 analytically  !
 ! A137  A(34,71,80)           117.244          calculate D2E/DX2 analytically  !
 ! A138  A(72,71,80)           119.5446         calculate D2E/DX2 analytically  !
 ! A139  A(71,72,73)           119.9699         calculate D2E/DX2 analytically  !
 ! A140  A(71,72,74)           120.1909         calculate D2E/DX2 analytically  !
 ! A141  A(73,72,74)           119.8229         calculate D2E/DX2 analytically  !
 ! A142  A(72,74,75)           119.8358         calculate D2E/DX2 analytically  !
 ! A143  A(72,74,76)           120.0306         calculate D2E/DX2 analytically  !
 ! A144  A(75,74,76)           120.1288         calculate D2E/DX2 analytically  !
 ! A145  A(74,76,77)           119.9829         calculate D2E/DX2 analytically  !
 ! A146  A(74,76,78)           120.0231         calculate D2E/DX2 analytically  !
 ! A147  A(77,76,78)           119.9925         calculate D2E/DX2 analytically  !
 ! A148  A(76,78,79)           120.19           calculate D2E/DX2 analytically  !
 ! A149  A(76,78,80)           120.1348         calculate D2E/DX2 analytically  !
 ! A150  A(79,78,80)           119.6734         calculate D2E/DX2 analytically  !
 ! A151  A(71,80,78)           120.0734         calculate D2E/DX2 analytically  !
 ! A152  A(71,80,81)           119.4621         calculate D2E/DX2 analytically  !
 ! A153  A(78,80,81)           120.4601         calculate D2E/DX2 analytically  !
 ! A154  A(37,82,83)           120.3759         calculate D2E/DX2 analytically  !
 ! A155  A(37,82,89)           119.5627         calculate D2E/DX2 analytically  !
 ! A156  A(83,82,89)           120.0552         calculate D2E/DX2 analytically  !
 ! A157  A(82,83,84)           120.2475         calculate D2E/DX2 analytically  !
 ! A158  A(82,83,87)           119.6908         calculate D2E/DX2 analytically  !
 ! A159  A(84,83,87)           120.0599         calculate D2E/DX2 analytically  !
 ! A160  A(83,84,85)           119.954          calculate D2E/DX2 analytically  !
 ! A161  A(83,84,88)           120.1703         calculate D2E/DX2 analytically  !
 ! A162  A(85,84,88)           119.8711         calculate D2E/DX2 analytically  !
 ! A163  A(36,85,84)           120.268          calculate D2E/DX2 analytically  !
 ! A164  A(36,85,86)           119.466          calculate D2E/DX2 analytically  !
 ! A165  A(84,85,86)           120.2564         calculate D2E/DX2 analytically  !
 ! A166  L(1,33,34,16,-1)      175.131          calculate D2E/DX2 analytically  !
 ! A167  L(1,33,34,16,-2)      172.0332         calculate D2E/DX2 analytically  !
 ! D1    D(9,1,2,3)           -170.2777         calculate D2E/DX2 analytically  !
 ! D2    D(9,1,2,4)             15.6419         calculate D2E/DX2 analytically  !
 ! D3    D(33,1,2,3)            35.9942         calculate D2E/DX2 analytically  !
 ! D4    D(33,1,2,4)          -138.0862         calculate D2E/DX2 analytically  !
 ! D5    D(2,1,9,7)            -16.7123         calculate D2E/DX2 analytically  !
 ! D6    D(2,1,9,10)           156.3582         calculate D2E/DX2 analytically  !
 ! D7    D(33,1,9,7)           133.7249         calculate D2E/DX2 analytically  !
 ! D8    D(33,1,9,10)          -53.2046         calculate D2E/DX2 analytically  !
 ! D9    D(2,1,33,16)         -120.405          calculate D2E/DX2 analytically  !
 ! D10   D(2,1,33,35)           81.0882         calculate D2E/DX2 analytically  !
 ! D11   D(9,1,33,16)           87.3326         calculate D2E/DX2 analytically  !
 ! D12   D(9,1,33,35)          -71.1742         calculate D2E/DX2 analytically  !
 ! D13   D(2,1,34,37)          115.2367         calculate D2E/DX2 analytically  !
 ! D14   D(2,1,34,60)         -121.8889         calculate D2E/DX2 analytically  !
 ! D15   D(2,1,34,71)            5.7037         calculate D2E/DX2 analytically  !
 ! D16   D(9,1,34,37)          -40.3871         calculate D2E/DX2 analytically  !
 ! D17   D(9,1,34,60)           82.4873         calculate D2E/DX2 analytically  !
 ! D18   D(9,1,34,71)         -149.9201         calculate D2E/DX2 analytically  !
 ! D19   D(1,2,4,5)            174.1573         calculate D2E/DX2 analytically  !
 ! D20   D(1,2,4,6)             -4.4613         calculate D2E/DX2 analytically  !
 ! D21   D(3,2,4,5)              0.1285         calculate D2E/DX2 analytically  !
 ! D22   D(3,2,4,6)           -178.4901         calculate D2E/DX2 analytically  !
 ! D23   D(2,4,6,7)             -6.1267         calculate D2E/DX2 analytically  !
 ! D24   D(2,4,6,28)           176.4201         calculate D2E/DX2 analytically  !
 ! D25   D(5,4,6,7)            175.2177         calculate D2E/DX2 analytically  !
 ! D26   D(5,4,6,28)            -2.2356         calculate D2E/DX2 analytically  !
 ! D27   D(4,6,7,8)           -172.438          calculate D2E/DX2 analytically  !
 ! D28   D(4,6,7,9)              5.2016         calculate D2E/DX2 analytically  !
 ! D29   D(28,6,7,8)             4.7824         calculate D2E/DX2 analytically  !
 ! D30   D(28,6,7,9)          -177.578          calculate D2E/DX2 analytically  !
 ! D31   D(4,6,28,29)         -176.7066         calculate D2E/DX2 analytically  !
 ! D32   D(7,6,28,29)            5.9815         calculate D2E/DX2 analytically  !
 ! D33   D(6,7,9,1)              6.1534         calculate D2E/DX2 analytically  !
 ! D34   D(6,7,9,10)          -165.5737         calculate D2E/DX2 analytically  !
 ! D35   D(8,7,9,1)           -176.1431         calculate D2E/DX2 analytically  !
 ! D36   D(8,7,9,10)            12.1298         calculate D2E/DX2 analytically  !
 ! D37   D(1,9,10,11)          168.1203         calculate D2E/DX2 analytically  !
 ! D38   D(1,9,10,15)          -13.414          calculate D2E/DX2 analytically  !
 ! D39   D(7,9,10,11)          -19.5464         calculate D2E/DX2 analytically  !
 ! D40   D(7,9,10,15)          158.9193         calculate D2E/DX2 analytically  !
 ! D41   D(9,10,11,12)         178.7652         calculate D2E/DX2 analytically  !
 ! D42   D(9,10,11,27)          -2.526          calculate D2E/DX2 analytically  !
 ! D43   D(15,10,11,12)          0.4026         calculate D2E/DX2 analytically  !
 ! D44   D(15,10,11,27)        179.1113         calculate D2E/DX2 analytically  !
 ! D45   D(9,10,15,14)         178.8442         calculate D2E/DX2 analytically  !
 ! D46   D(9,10,15,16)           4.2384         calculate D2E/DX2 analytically  !
 ! D47   D(11,10,15,14)         -2.5122         calculate D2E/DX2 analytically  !
 ! D48   D(11,10,15,16)       -177.118          calculate D2E/DX2 analytically  !
 ! D49   D(10,11,12,13)          0.7738         calculate D2E/DX2 analytically  !
 ! D50   D(10,11,12,26)        179.3242         calculate D2E/DX2 analytically  !
 ! D51   D(27,11,12,13)       -177.9615         calculate D2E/DX2 analytically  !
 ! D52   D(27,11,12,26)          0.5889         calculate D2E/DX2 analytically  !
 ! D53   D(11,12,13,14)          0.1543         calculate D2E/DX2 analytically  !
 ! D54   D(11,12,13,25)        177.3046         calculate D2E/DX2 analytically  !
 ! D55   D(26,12,13,14)       -178.4127         calculate D2E/DX2 analytically  !
 ! D56   D(26,12,13,25)         -1.2624         calculate D2E/DX2 analytically  !
 ! D57   D(12,13,14,15)         -2.2662         calculate D2E/DX2 analytically  !
 ! D58   D(12,13,14,24)        174.5968         calculate D2E/DX2 analytically  !
 ! D59   D(25,13,14,15)       -179.4028         calculate D2E/DX2 analytically  !
 ! D60   D(25,13,14,24)         -2.5398         calculate D2E/DX2 analytically  !
 ! D61   D(13,14,15,10)          3.4266         calculate D2E/DX2 analytically  !
 ! D62   D(13,14,15,16)        177.2072         calculate D2E/DX2 analytically  !
 ! D63   D(24,14,15,10)       -173.2803         calculate D2E/DX2 analytically  !
 ! D64   D(24,14,15,16)          0.5004         calculate D2E/DX2 analytically  !
 ! D65   D(10,15,16,17)       -129.8564         calculate D2E/DX2 analytically  !
 ! D66   D(10,15,16,33)         70.3486         calculate D2E/DX2 analytically  !
 ! D67   D(14,15,16,17)         56.001          calculate D2E/DX2 analytically  !
 ! D68   D(14,15,16,33)       -103.7939         calculate D2E/DX2 analytically  !
 ! D69   D(15,16,17,18)       -179.117          calculate D2E/DX2 analytically  !
 ! D70   D(15,16,17,19)        -45.9954         calculate D2E/DX2 analytically  !
 ! D71   D(15,16,17,20)         68.1809         calculate D2E/DX2 analytically  !
 ! D72   D(33,16,17,18)        -20.5381         calculate D2E/DX2 analytically  !
 ! D73   D(33,16,17,19)        112.5836         calculate D2E/DX2 analytically  !
 ! D74   D(33,16,17,20)       -133.2402         calculate D2E/DX2 analytically  !
 ! D75   D(15,16,33,1)         -91.5014         calculate D2E/DX2 analytically  !
 ! D76   D(15,16,33,34)         96.4654         calculate D2E/DX2 analytically  !
 ! D77   D(15,16,33,35)        -48.8184         calculate D2E/DX2 analytically  !
 ! D78   D(17,16,33,1)         107.649          calculate D2E/DX2 analytically  !
 ! D79   D(17,16,33,34)        -64.3842         calculate D2E/DX2 analytically  !
 ! D80   D(17,16,33,35)        150.332          calculate D2E/DX2 analytically  !
 ! D81   D(16,17,20,21)        179.8057         calculate D2E/DX2 analytically  !
 ! D82   D(16,17,20,22)         58.9121         calculate D2E/DX2 analytically  !
 ! D83   D(16,17,20,23)        -60.1239         calculate D2E/DX2 analytically  !
 ! D84   D(18,17,20,21)         70.2098         calculate D2E/DX2 analytically  !
 ! D85   D(18,17,20,22)        -50.6838         calculate D2E/DX2 analytically  !
 ! D86   D(18,17,20,23)       -169.7199         calculate D2E/DX2 analytically  !
 ! D87   D(19,17,20,21)        -63.324          calculate D2E/DX2 analytically  !
 ! D88   D(19,17,20,22)        175.7824         calculate D2E/DX2 analytically  !
 ! D89   D(19,17,20,23)         56.7463         calculate D2E/DX2 analytically  !
 ! D90   D(6,28,29,30)          56.2323         calculate D2E/DX2 analytically  !
 ! D91   D(6,28,29,31)         -65.6456         calculate D2E/DX2 analytically  !
 ! D92   D(6,28,29,32)         175.475          calculate D2E/DX2 analytically  !
 ! D93   D(16,33,34,37)       -130.5508         calculate D2E/DX2 analytically  !
 ! D94   D(16,33,34,60)        -10.1025         calculate D2E/DX2 analytically  !
 ! D95   D(16,33,34,71)        121.1437         calculate D2E/DX2 analytically  !
 ! D96   D(35,33,34,37)         31.9058         calculate D2E/DX2 analytically  !
 ! D97   D(35,33,34,60)        152.3541         calculate D2E/DX2 analytically  !
 ! D98   D(35,33,34,71)        -76.3997         calculate D2E/DX2 analytically  !
 ! D99   D(1,33,35,36)         153.1678         calculate D2E/DX2 analytically  !
 ! D100  D(1,33,35,38)         -90.1283         calculate D2E/DX2 analytically  !
 ! D101  D(1,33,35,49)          36.0068         calculate D2E/DX2 analytically  !
 ! D102  D(16,33,35,36)        120.2816         calculate D2E/DX2 analytically  !
 ! D103  D(16,33,35,38)       -123.0145         calculate D2E/DX2 analytically  !
 ! D104  D(16,33,35,49)          3.1206         calculate D2E/DX2 analytically  !
 ! D105  D(34,33,35,36)        -31.3194         calculate D2E/DX2 analytically  !
 ! D106  D(34,33,35,38)         85.3845         calculate D2E/DX2 analytically  !
 ! D107  D(34,33,35,49)       -148.4804         calculate D2E/DX2 analytically  !
 ! D108  D(33,34,37,36)        -27.3649         calculate D2E/DX2 analytically  !
 ! D109  D(33,34,37,82)        151.5081         calculate D2E/DX2 analytically  !
 ! D110  D(60,34,37,36)       -162.4933         calculate D2E/DX2 analytically  !
 ! D111  D(60,34,37,82)         16.3797         calculate D2E/DX2 analytically  !
 ! D112  D(71,34,37,36)         86.8082         calculate D2E/DX2 analytically  !
 ! D113  D(71,34,37,82)        -94.3188         calculate D2E/DX2 analytically  !
 ! D114  D(33,34,60,61)        -21.9628         calculate D2E/DX2 analytically  !
 ! D115  D(33,34,60,69)        156.4405         calculate D2E/DX2 analytically  !
 ! D116  D(37,34,60,61)         97.5019         calculate D2E/DX2 analytically  !
 ! D117  D(37,34,60,69)        -84.0949         calculate D2E/DX2 analytically  !
 ! D118  D(71,34,60,61)       -154.6418         calculate D2E/DX2 analytically  !
 ! D119  D(71,34,60,69)         23.7615         calculate D2E/DX2 analytically  !
 ! D120  D(33,34,71,72)        140.3214         calculate D2E/DX2 analytically  !
 ! D121  D(33,34,71,80)        -36.5029         calculate D2E/DX2 analytically  !
 ! D122  D(37,34,71,72)         31.8            calculate D2E/DX2 analytically  !
 ! D123  D(37,34,71,80)       -145.0244         calculate D2E/DX2 analytically  !
 ! D124  D(60,34,71,72)        -77.9334         calculate D2E/DX2 analytically  !
 ! D125  D(60,34,71,80)        105.2422         calculate D2E/DX2 analytically  !
 ! D126  D(33,35,36,37)         24.9057         calculate D2E/DX2 analytically  !
 ! D127  D(33,35,36,85)       -152.219          calculate D2E/DX2 analytically  !
 ! D128  D(38,35,36,37)        -97.9255         calculate D2E/DX2 analytically  !
 ! D129  D(38,35,36,85)         84.9498         calculate D2E/DX2 analytically  !
 ! D130  D(49,35,36,37)        149.3255         calculate D2E/DX2 analytically  !
 ! D131  D(49,35,36,85)        -27.7992         calculate D2E/DX2 analytically  !
 ! D132  D(33,35,38,39)       -114.5376         calculate D2E/DX2 analytically  !
 ! D133  D(33,35,38,47)         60.0398         calculate D2E/DX2 analytically  !
 ! D134  D(36,35,38,39)          1.5639         calculate D2E/DX2 analytically  !
 ! D135  D(36,35,38,47)        176.1413         calculate D2E/DX2 analytically  !
 ! D136  D(49,35,38,39)        114.0656         calculate D2E/DX2 analytically  !
 ! D137  D(49,35,38,47)        -71.357          calculate D2E/DX2 analytically  !
 ! D138  D(33,35,49,50)         41.3673         calculate D2E/DX2 analytically  !
 ! D139  D(33,35,49,58)       -133.3183         calculate D2E/DX2 analytically  !
 ! D140  D(36,35,49,50)        -75.3758         calculate D2E/DX2 analytically  !
 ! D141  D(36,35,49,58)        109.9385         calculate D2E/DX2 analytically  !
 ! D142  D(38,35,49,50)        171.9146         calculate D2E/DX2 analytically  !
 ! D143  D(38,35,49,58)         -2.7711         calculate D2E/DX2 analytically  !
 ! D144  D(35,36,37,34)          2.5172         calculate D2E/DX2 analytically  !
 ! D145  D(35,36,37,82)       -176.4074         calculate D2E/DX2 analytically  !
 ! D146  D(85,36,37,34)        179.7237         calculate D2E/DX2 analytically  !
 ! D147  D(85,36,37,82)          0.7992         calculate D2E/DX2 analytically  !
 ! D148  D(35,36,85,84)        176.7309         calculate D2E/DX2 analytically  !
 ! D149  D(35,36,85,86)         -2.1431         calculate D2E/DX2 analytically  !
 ! D150  D(37,36,85,84)         -0.3286         calculate D2E/DX2 analytically  !
 ! D151  D(37,36,85,86)       -179.2025         calculate D2E/DX2 analytically  !
 ! D152  D(34,37,82,83)       -179.5187         calculate D2E/DX2 analytically  !
 ! D153  D(34,37,82,89)         -0.4269         calculate D2E/DX2 analytically  !
 ! D154  D(36,37,82,83)         -0.6698         calculate D2E/DX2 analytically  !
 ! D155  D(36,37,82,89)        178.4219         calculate D2E/DX2 analytically  !
 ! D156  D(35,38,39,40)         -4.7954         calculate D2E/DX2 analytically  !
 ! D157  D(35,38,39,41)        174.3532         calculate D2E/DX2 analytically  !
 ! D158  D(47,38,39,40)       -179.262          calculate D2E/DX2 analytically  !
 ! D159  D(47,38,39,41)         -0.1133         calculate D2E/DX2 analytically  !
 ! D160  D(35,38,47,45)       -175.539          calculate D2E/DX2 analytically  !
 ! D161  D(35,38,47,48)          3.7992         calculate D2E/DX2 analytically  !
 ! D162  D(39,38,47,45)         -0.7796         calculate D2E/DX2 analytically  !
 ! D163  D(39,38,47,48)        178.5586         calculate D2E/DX2 analytically  !
 ! D164  D(38,39,41,42)       -179.1157         calculate D2E/DX2 analytically  !
 ! D165  D(38,39,41,43)          0.6628         calculate D2E/DX2 analytically  !
 ! D166  D(40,39,41,42)          0.0322         calculate D2E/DX2 analytically  !
 ! D167  D(40,39,41,43)        179.8107         calculate D2E/DX2 analytically  !
 ! D168  D(39,41,43,44)       -179.9947         calculate D2E/DX2 analytically  !
 ! D169  D(39,41,43,45)         -0.3199         calculate D2E/DX2 analytically  !
 ! D170  D(42,41,43,44)         -0.2175         calculate D2E/DX2 analytically  !
 ! D171  D(42,41,43,45)        179.4574         calculate D2E/DX2 analytically  !
 ! D172  D(41,43,45,46)       -179.7287         calculate D2E/DX2 analytically  !
 ! D173  D(41,43,45,47)         -0.5764         calculate D2E/DX2 analytically  !
 ! D174  D(44,43,45,46)         -0.0538         calculate D2E/DX2 analytically  !
 ! D175  D(44,43,45,47)        179.0985         calculate D2E/DX2 analytically  !
 ! D176  D(43,45,47,38)          1.1262         calculate D2E/DX2 analytically  !
 ! D177  D(43,45,47,48)       -178.2096         calculate D2E/DX2 analytically  !
 ! D178  D(46,45,47,38)       -179.7174         calculate D2E/DX2 analytically  !
 ! D179  D(46,45,47,48)          0.9468         calculate D2E/DX2 analytically  !
 ! D180  D(35,49,50,51)          3.3236         calculate D2E/DX2 analytically  !
 ! D181  D(35,49,50,52)       -175.5271         calculate D2E/DX2 analytically  !
 ! D182  D(58,49,50,51)        178.2465         calculate D2E/DX2 analytically  !
 ! D183  D(58,49,50,52)         -0.6042         calculate D2E/DX2 analytically  !
 ! D184  D(35,49,58,56)        174.5599         calculate D2E/DX2 analytically  !
 ! D185  D(35,49,58,59)         -4.8834         calculate D2E/DX2 analytically  !
 ! D186  D(50,49,58,56)          0.0248         calculate D2E/DX2 analytically  !
 ! D187  D(50,49,58,59)       -179.4185         calculate D2E/DX2 analytically  !
 ! D188  D(49,50,52,53)        178.9942         calculate D2E/DX2 analytically  !
 ! D189  D(49,50,52,54)          0.9733         calculate D2E/DX2 analytically  !
 ! D190  D(51,50,52,53)          0.1533         calculate D2E/DX2 analytically  !
 ! D191  D(51,50,52,54)       -177.8675         calculate D2E/DX2 analytically  !
 ! D192  D(50,52,54,55)        179.1598         calculate D2E/DX2 analytically  !
 ! D193  D(50,52,54,56)         -0.7623         calculate D2E/DX2 analytically  !
 ! D194  D(53,52,54,55)          1.1524         calculate D2E/DX2 analytically  !
 ! D195  D(53,52,54,56)       -178.7697         calculate D2E/DX2 analytically  !
 ! D196  D(52,54,56,57)       -179.8076         calculate D2E/DX2 analytically  !
 ! D197  D(52,54,56,58)          0.1854         calculate D2E/DX2 analytically  !
 ! D198  D(55,54,56,57)          0.2703         calculate D2E/DX2 analytically  !
 ! D199  D(55,54,56,58)       -179.7367         calculate D2E/DX2 analytically  !
 ! D200  D(54,56,58,49)          0.1825         calculate D2E/DX2 analytically  !
 ! D201  D(54,56,58,59)        179.6249         calculate D2E/DX2 analytically  !
 ! D202  D(57,56,58,49)       -179.8245         calculate D2E/DX2 analytically  !
 ! D203  D(57,56,58,59)         -0.3821         calculate D2E/DX2 analytically  !
 ! D204  D(34,60,61,62)          1.8619         calculate D2E/DX2 analytically  !
 ! D205  D(34,60,61,63)        179.9692         calculate D2E/DX2 analytically  !
 ! D206  D(69,60,61,62)       -176.6176         calculate D2E/DX2 analytically  !
 ! D207  D(69,60,61,63)          1.4897         calculate D2E/DX2 analytically  !
 ! D208  D(34,60,69,67)       -179.6614         calculate D2E/DX2 analytically  !
 ! D209  D(34,60,69,70)         -0.5997         calculate D2E/DX2 analytically  !
 ! D210  D(61,60,69,67)         -1.3058         calculate D2E/DX2 analytically  !
 ! D211  D(61,60,69,70)        177.7559         calculate D2E/DX2 analytically  !
 ! D212  D(60,61,63,64)       -179.4042         calculate D2E/DX2 analytically  !
 ! D213  D(60,61,63,65)         -0.6412         calculate D2E/DX2 analytically  !
 ! D214  D(62,61,63,64)         -1.2967         calculate D2E/DX2 analytically  !
 ! D215  D(62,61,63,65)        177.4663         calculate D2E/DX2 analytically  !
 ! D216  D(61,63,65,66)       -179.3805         calculate D2E/DX2 analytically  !
 ! D217  D(61,63,65,67)         -0.3965         calculate D2E/DX2 analytically  !
 ! D218  D(64,63,65,66)         -0.6296         calculate D2E/DX2 analytically  !
 ! D219  D(64,63,65,67)        178.3543         calculate D2E/DX2 analytically  !
 ! D220  D(63,65,67,68)       -178.9082         calculate D2E/DX2 analytically  !
 ! D221  D(63,65,67,69)          0.5778         calculate D2E/DX2 analytically  !
 ! D222  D(66,65,67,68)          0.0765         calculate D2E/DX2 analytically  !
 ! D223  D(66,65,67,69)        179.5625         calculate D2E/DX2 analytically  !
 ! D224  D(65,67,69,60)          0.279          calculate D2E/DX2 analytically  !
 ! D225  D(65,67,69,70)       -178.7842         calculate D2E/DX2 analytically  !
 ! D226  D(68,67,69,60)        179.7667         calculate D2E/DX2 analytically  !
 ! D227  D(68,67,69,70)          0.7035         calculate D2E/DX2 analytically  !
 ! D228  D(34,71,72,73)          1.3295         calculate D2E/DX2 analytically  !
 ! D229  D(34,71,72,74)       -177.2            calculate D2E/DX2 analytically  !
 ! D230  D(80,71,72,73)        178.0841         calculate D2E/DX2 analytically  !
 ! D231  D(80,71,72,74)         -0.4455         calculate D2E/DX2 analytically  !
 ! D232  D(34,71,80,78)        177.0082         calculate D2E/DX2 analytically  !
 ! D233  D(34,71,80,81)         -2.2356         calculate D2E/DX2 analytically  !
 ! D234  D(72,71,80,78)          0.0648         calculate D2E/DX2 analytically  !
 ! D235  D(72,71,80,81)       -179.179          calculate D2E/DX2 analytically  !
 ! D236  D(71,72,74,75)        179.8265         calculate D2E/DX2 analytically  !
 ! D237  D(71,72,74,76)          0.6206         calculate D2E/DX2 analytically  !
 ! D238  D(73,72,74,75)          1.2947         calculate D2E/DX2 analytically  !
 ! D239  D(73,72,74,76)       -177.9111         calculate D2E/DX2 analytically  !
 ! D240  D(72,74,76,77)        179.1446         calculate D2E/DX2 analytically  !
 ! D241  D(72,74,76,78)         -0.4134         calculate D2E/DX2 analytically  !
 ! D242  D(75,74,76,77)         -0.0589         calculate D2E/DX2 analytically  !
 ! D243  D(75,74,76,78)       -179.6169         calculate D2E/DX2 analytically  !
 ! D244  D(74,76,78,79)        179.5474         calculate D2E/DX2 analytically  !
 ! D245  D(74,76,78,80)          0.0327         calculate D2E/DX2 analytically  !
 ! D246  D(77,76,78,79)         -0.0106         calculate D2E/DX2 analytically  !
 ! D247  D(77,76,78,80)       -179.5252         calculate D2E/DX2 analytically  !
 ! D248  D(76,78,80,71)          0.1407         calculate D2E/DX2 analytically  !
 ! D249  D(76,78,80,81)        179.3769         calculate D2E/DX2 analytically  !
 ! D250  D(79,78,80,71)       -179.3764         calculate D2E/DX2 analytically  !
 ! D251  D(79,78,80,81)         -0.1403         calculate D2E/DX2 analytically  !
 ! D252  D(37,82,83,84)          0.0672         calculate D2E/DX2 analytically  !
 ! D253  D(37,82,83,87)        179.5881         calculate D2E/DX2 analytically  !
 ! D254  D(89,82,83,84)       -179.0201         calculate D2E/DX2 analytically  !
 ! D255  D(89,82,83,87)          0.5009         calculate D2E/DX2 analytically  !
 ! D256  D(82,83,84,85)          0.4128         calculate D2E/DX2 analytically  !
 ! D257  D(82,83,84,88)        179.639          calculate D2E/DX2 analytically  !
 ! D258  D(87,83,84,85)       -179.1064         calculate D2E/DX2 analytically  !
 ! D259  D(87,83,84,88)          0.1199         calculate D2E/DX2 analytically  !
 ! D260  D(83,84,85,36)         -0.2788         calculate D2E/DX2 analytically  !
 ! D261  D(83,84,85,86)        178.5862         calculate D2E/DX2 analytically  !
 ! D262  D(88,84,85,36)       -179.5074         calculate D2E/DX2 analytically  !
 ! D263  D(88,84,85,86)         -0.6424         calculate D2E/DX2 analytically  !
 --------------------------------------------------------------------------------
 Trust Radius=3.00D-01 FncErr=1.00D-07 GrdErr=1.00D-06
 Number of steps in this run=    534 maximum allowed number of steps=    534.
 Search for a saddle point of order  1.
 GradGradGradGradGradGradGradGradGradGradGradGradGradGradGradGradGradGrad

 Leave Link  103 at Wed Jun  4 17:46:35 2025, MaxMem=  2147483648 cpu:         0.0
 (Enter /cluster/software/commercial/gaussian/g09/l202.exe)
 Stoichiometry    C44H32ClF4NO3P2PdS
 Framework group  C1[X(C44H32ClF4NO3P2PdS)]
 Deg. of freedom   261
 Full point group                 C1      NOp   1
 Largest Abelian subgroup         C1      NOp   1
 Largest concise Abelian subgroup C1      NOp   1
                         Standard orientation:                         
 ---------------------------------------------------------------------
 Center     Atomic      Atomic             Coordinates (Angstroms)
 Number     Number       Type             X           Y           Z
 ---------------------------------------------------------------------
      1          6           0        1.621437    0.492582    1.051495
      2          6           0        1.457567    1.167953    2.286908
      3          1           0        0.704508    0.832908    3.002392
      4          6           0        2.184274    2.325260    2.502007
      5          1           0        2.017131    2.926589    3.398823
      6          6           0        3.139709    2.787632    1.569614
      7          6           0        3.455565    2.003788    0.465412
      8          1           0        4.269648    2.266581   -0.207677
      9          6           0        2.740588    0.817426    0.237173
     10          6           0        3.067288   -0.268922   -0.648189
     11          6           0        3.929791   -0.290955   -1.745515
     12          6           0        4.130609   -1.459715   -2.465175
     13          6           0        3.451004   -2.626766   -2.100191
     14          6           0        2.569429   -2.631415   -1.021972
     15          6           0        2.397454   -1.467496   -0.266419
     16          7           0        1.515891   -1.282714    0.810298
     17         16           0        1.491652   -2.245447    2.192172
     18          8           0        0.417038   -1.699579    3.007050
     19          8           0        1.545308   -3.655087    1.861530
     20          6           0        3.075043   -1.782939    2.930864
     21         17           0        3.341608   -2.646449    4.438610
     22          1           0        3.049538   -0.698710    3.106276
     23          1           0        3.854458   -2.044563    2.202281
     24          9           0        1.877269   -3.735580   -0.796154
     25          9           0        3.608592   -3.722605   -2.825997
     26          9           0        4.938456   -1.476310   -3.513633
     27          9           0        4.558099    0.816978   -2.139391
     28          8           0        3.728183    3.972042    1.863190
     29          6           0        4.627612    4.501971    0.934623
     30          1           0        4.161937    4.619660   -0.061382
     31          1           0        5.531292    3.874593    0.826721
     32          1           0        4.928965    5.488652    1.309825
     33         46           0       -0.181069   -0.168243    0.299104
     34         15           0       -2.265071   -1.127759   -0.300147
     35         15           0       -1.057683    1.695402   -0.694107
     36          6           0       -2.155540    1.062533   -2.014567
     37          6           0       -2.684074   -0.238645   -1.856140
     38          6           0       -2.096859    2.734443    0.375886
     39          6           0       -3.465960    2.913843    0.157941
     40          1           0       -3.937728    2.483199   -0.727729
     41          6           0       -4.231922    3.626541    1.079052
     42          1           0       -5.303879    3.749760    0.908530
     43          6           0       -3.636088    4.174695    2.212618
     44          1           0       -4.239447    4.732662    2.932598
     45          6           0       -2.267893    4.004073    2.430589
     46          1           0       -1.796426    4.428189    3.320346
     47          6           0       -1.501509    3.278074    1.524706
     48          1           0       -0.435496    3.119690    1.710579
     49          6           0        0.112513    2.818701   -1.514178
     50          6           0        1.136444    2.219249   -2.262346
     51          1           0        1.157989    1.130372   -2.366993
     52          6           0        2.129334    2.998857   -2.846209
     53          1           0        2.930413    2.519622   -3.412498
     54          6           0        2.119818    4.383272   -2.670937
     55          1           0        2.906939    4.995783   -3.117574
     56          6           0        1.106537    4.984814   -1.924334
     57          1           0        1.095812    6.069019   -1.788726
     58          6           0        0.103052    4.208247   -1.347720
     59          1           0       -0.685659    4.681647   -0.758499
     60          6           0       -2.627622   -2.879411   -0.648419
     61          6           0       -1.538758   -3.678035   -1.021187
     62          1           0       -0.535545   -3.246711   -1.059308
     63          6           0       -1.723674   -5.028689   -1.305205
     64          1           0       -0.864595   -5.642373   -1.585185
     65          6           0       -2.994411   -5.593689   -1.205934
     66          1           0       -3.138713   -6.655665   -1.418774
     67          6           0       -4.078842   -4.808082   -0.814186
     68          1           0       -5.071840   -5.254047   -0.718851
     69          6           0       -3.898808   -3.455356   -0.532729
     70          1           0       -4.747246   -2.848788   -0.207128
     71          6           0       -3.573102   -0.553270    0.840254
     72          6           0       -4.866714   -0.224232    0.417543
     73          1           0       -5.139591   -0.326784   -0.636112
     74          6           0       -5.799244    0.262877    1.330378
     75          1           0       -6.806414    0.520553    0.993587
     76          6           0       -5.442340    0.436565    2.667273
     77          1           0       -6.170262    0.831915    3.379855
     78          6           0       -4.154334    0.114618    3.092931
     79          1           0       -3.869628    0.256527    4.137867
     80          6           0       -3.220924   -0.380325    2.184919
     81          1           0       -2.204990   -0.625280    2.511285
     82          6           0       -3.465036   -0.788352   -2.876295
     83          6           0       -3.732040   -0.055874   -4.032553
     84          6           0       -3.220219    1.232692   -4.181668
     85          6           0       -2.431614    1.788879   -3.176159
     86          1           0       -2.008804    2.789583   -3.297857
     87          1           0       -4.338381   -0.499162   -4.826093
     88          1           0       -3.425279    1.803146   -5.090529
     89          1           0       -3.854448   -1.804105   -2.769580
 ---------------------------------------------------------------------
 Rotational constants (GHZ):      0.0506127      0.0431663      0.0362953
 Leave Link  202 at Wed Jun  4 17:46:35 2025, MaxMem=  2147483648 cpu:         0.0
 (Enter /cluster/software/commercial/gaussian/g09/l301.exe)
 General basis read from cards:  (5D, 7F)
 Centers:       1      2      4      6      7      9     10     11     12     13
 Centers:      14     15     20     29     36     37     38     39     41     43
 Centers:      45     47     49     50     52     54     56     58     60     61
 Centers:      63     65     67     69     71     72     74     76     78     80
 Centers:      82     83     84     85      3      5      8     22     23     30
 Centers:      31     32     40     42     44     46     48     51     53     55
 Centers:      57     59     62     64     66     68     70     73     75     77
 Centers:      79     81     86     87     88     89     34     35     17     21
 Centers:      16     24     25     26     27     18     19     28
 def2svp
 ****
 Centers:      33
 def2tzvp
 ****
 ======================================================================================================
                                       Pseudopotential Parameters
 ======================================================================================================
  Center     Atomic      Valence      Angular      Power
  Number     Number     Electrons     Momentum     of R      Exponent        Coefficient   SO-Coeffient
 ======================================================================================================
    1          6
                                   No pseudopotential on this center.
    2          6
                                   No pseudopotential on this center.
    3          1
                                   No pseudopotential on this center.
    4          6
                                   No pseudopotential on this center.
    5          1
                                   No pseudopotential on this center.
    6          6
                                   No pseudopotential on this center.
    7          6
                                   No pseudopotential on this center.
    8          1
                                   No pseudopotential on this center.
    9          6
                                   No pseudopotential on this center.
   10          6
                                   No pseudopotential on this center.
   11          6
                                   No pseudopotential on this center.
   12          6
                                   No pseudopotential on this center.
   13          6
                                   No pseudopotential on this center.
   14          6
                                   No pseudopotential on this center.
   15          6
                                   No pseudopotential on this center.
   16          7
                                   No pseudopotential on this center.
   17         16
                                   No pseudopotential on this center.
   18          8
                                   No pseudopotential on this center.
   19          8
                                   No pseudopotential on this center.
   20          6
                                   No pseudopotential on this center.
   21         17
                                   No pseudopotential on this center.
   22          1
                                   No pseudopotential on this center.
   23          1
                                   No pseudopotential on this center.
   24          9
                                   No pseudopotential on this center.
   25          9
                                   No pseudopotential on this center.
   26          9
                                   No pseudopotential on this center.
   27          9
                                   No pseudopotential on this center.
   28          8
                                   No pseudopotential on this center.
   29          6
                                   No pseudopotential on this center.
   30          1
                                   No pseudopotential on this center.
   31          1
                                   No pseudopotential on this center.
   32          1
                                   No pseudopotential on this center.
   33         46           18
                                      G and up 
                                                     2        1.0000000        0.00000000    0.00000000
                                      S - G
                                                     2       12.4300000      240.22904000    0.00000000
                                                     2        6.1707590       35.17194300    0.00000000
                                      P - G
                                                     2       11.0800000      170.41727600    0.00000000
                                                     2        5.8295540       28.47213300    0.00000000
                                      D - G
                                                     2        9.5100000       69.01384500    0.00000000
                                                     2        4.1397810       11.75086200    0.00000000
                                      F - G
                                                     2       13.2700000      -31.92955400    0.00000000
                                                     2        6.6300000       -5.39821700    0.00000000
   34         15
                                   No pseudopotential on this center.
   35         15
                                   No pseudopotential on this center.
   36          6
                                   No pseudopotential on this center.
   37          6
                                   No pseudopotential on this center.
   38          6
                                   No pseudopotential on this center.
   39          6
                                   No pseudopotential on this center.
   40          1
                                   No pseudopotential on this center.
   41          6
                                   No pseudopotential on this center.
   42          1
                                   No pseudopotential on this center.
   43          6
                                   No pseudopotential on this center.
   44          1
                                   No pseudopotential on this center.
   45          6
                                   No pseudopotential on this center.
   46          1
                                   No pseudopotential on this center.
   47          6
                                   No pseudopotential on this center.
   48          1
                                   No pseudopotential on this center.
   49          6
                                   No pseudopotential on this center.
   50          6
                                   No pseudopotential on this center.
   51          1
                                   No pseudopotential on this center.
   52          6
                                   No pseudopotential on this center.
   53          1
                                   No pseudopotential on this center.
   54          6
                                   No pseudopotential on this center.
   55          1
                                   No pseudopotential on this center.
   56          6
                                   No pseudopotential on this center.
   57          1
                                   No pseudopotential on this center.
   58          6
                                   No pseudopotential on this center.
   59          1
                                   No pseudopotential on this center.
   60          6
                                   No pseudopotential on this center.
   61          6
                                   No pseudopotential on this center.
   62          1
                                   No pseudopotential on this center.
   63          6
                                   No pseudopotential on this center.
   64          1
                                   No pseudopotential on this center.
   65          6
                                   No pseudopotential on this center.
   66          1
                                   No pseudopotential on this center.
   67          6
                                   No pseudopotential on this center.
   68          1
                                   No pseudopotential on this center.
   69          6
                                   No pseudopotential on this center.
   70          1
                                   No pseudopotential on this center.
   71          6
                                   No pseudopotential on this center.
   72          6
                                   No pseudopotential on this center.
   73          1
                                   No pseudopotential on this center.
   74          6
                                   No pseudopotential on this center.
   75          1
                                   No pseudopotential on this center.
   76          6
                                   No pseudopotential on this center.
   77          1
                                   No pseudopotential on this center.
   78          6
                                   No pseudopotential on this center.
   79          1
[...]
 1317,0.00002694,0.00000168,-0.00000159,-0.00000988,0.00006904,0.000097
 32,0.00019684,0.00000560,0.00000380,0.00000554,0.00002530,0.00000301,-
 0.00001226,0.00001565,-0.00000133,0.00000366,-0.00000589,-0.00000003,0
 .00000354,-0.00000854,-0.00000445,0.00001123,-0.00000082,0.00000137,0.
 00000253,0.00001181,-0.00001821,0.00001460,-0.00000523,-0.00000190,0.0
 0000579,-0.00007139,-0.00001735,0.00001529,-0.00000329,0.00000465,0.00
 000470,0.00425250,0.00432543,-0.00196630,0.00634979,0.00652858,0.00959
 897,-0.05742897,-0.02542056,-0.05515816,0.00106058,-0.01009195,-0.0143
 8277,-0.00233381,-0.00162897,0.00199680,-0.00247858,-0.00167077,0.0016
 2552,0.04917561,0.00002445,0.00003082,0.00003860,-0.00000772,0.0000004
 1,-0.00001205,0.00000304,0.00000164,0.00000004,-0.00000240,-0.00000497
 ,0.00000091,0.00000036,0.00000092,-0.00000027,0.00000122,-0.00001320,0
 .00001114,-0.00000540,0.00000317,-0.00001341,0.00000009,0.00000115,-0.
 00000023,-0.00001814,0.00000037,0.00001298,0.00000483,0.00002607,-0.00
 001011,0.00000078,-0.00000843,0.00000116,0.00001400,0.00000860,-0.0000
 2264,0.00000627,0.00001248,-0.00001699,0.00000235,-0.00000931,-0.00000
 348,0.00001605,-0.00000022,-0.00000767,0.00001305,-0.00002805,-0.00001
 711,0.00001776,-0.00001311,0.00001649,-0.00000763,0.00000270,-0.000002
 70,-0.00000667,-0.00000768,-0.00000879,0.00000018,0.00000362,0.0000045
 8,-0.00000103,-0.00000160,-0.00000239,0.00000006,0.00000118,-0.0000001
 3,-0.00000007,0.00000032,-0.00000075,-0.00000813,0.00000445,0.00000286
 ,-0.00000351,-0.00001969,0.00001613,-0.00001483,-0.00000174,0.00002193
 ,-0.00000509,0.00000449,0.00000496,-0.00001475,0.00001963,-0.00000198,
 0.00000941,-0.00000303,-0.00000584,0.00000030,0.00000017,0.00000143,-0
 .00000169,-0.00000156,0.00000074,-0.00000028,0.00000102,0.,0.00010361,
 0.00005612,0.00009500,-0.00024817,-0.00019514,0.00012064,0.00003207,0.
 00019799,0.00023678,0.00350321,0.00096305,0.00109387,0.00029423,-0.000
 56698,0.00086038,0.00004276,0.00002226,0.00002062,0.00000114,-0.000021
 81,0.00000641,-0.00000737,0.00001093,0.00000514,-0.00000471,0.00000096
 ,-0.00000199,-0.00000327,-0.00000005,0.00000269,-0.00000248,-0.0000032
 5,0.00000558,-0.00000057,0.00000058,0.00000017,0.00000234,-0.00000532,
 -0.00000062,-0.00000153,-0.00000069,0.00000174,-0.00001937,-0.00001579
 ,0.00001176,-0.00000306,0.00000358,-0.00000175,-0.00004465,0.00004339,
 0.00001923,-0.00000572,0.00001359,-0.00001702,-0.00000326,-0.00000541,
 -0.00000438,0.00001136,-0.00000866,-0.00000222,-0.00000383,-0.00000045
 ,-0.00000187,0.00000823,0.00000973,-0.00000502,0.00000100,0.00000083,0
 .00000071,-0.00001611,-0.00000973,-0.00000277,0.00000427,-0.00000350,0
 .00000328,0.00000127,-0.00003469,-0.00001869,0.00000155,0.00000042,0.0
 0001233,-0.00003448,0.00001281,-0.00004082,0.00002007,0.00000766,-0.00
 000287,0.00000110,0.00000045,-0.00000053,-0.00000093,0.00000206,0.0000
 0718,-0.00000205,-0.00000269,-0.00000147,0.00000273,0.00000351,0.00000
 263,-0.00000063,-0.00000411,-0.00000061,-0.00001705,0.00001445,-0.0000
 1221,0.00000166,0.00000036,0.00000037,-0.00002088,0.00000870,-0.000017
 19,-0.00001243,-0.00000077,0.00001907,0.00001542,0.00006897,0.00007307
 ,0.00001986,0.00000444,0.00001710,-0.00001939,-0.00001294,0.00000953,-
 0.00000949,-0.00000482,-0.00001105,0.00000100,-0.00000019,-0.00000021,
 0.00000245,0.00000098,0.00000054,-0.00000013,0.00000145,-0.00000229,0.
 00000453,-0.00000617,0.00000074,-0.00000106,-0.00000041,0.00000024,-0.
 00001748,-0.00000132,0.00000069,0.00000171,-0.00000160,0.00000198,0.00
 451150,-0.00367629,-0.00059255,-0.00708877,-0.00886527,-0.02423216,-0.
 02555363,-0.13732531,-0.12964341,0.00376863,0.00997467,0.01166440,-0.0
 0163542,-0.00002412,0.00054355,-0.00150422,0.00041855,0.00098931,0.024
 25051,0.13940366,0.00009836,0.00000846,0.00000538,-0.00003192,0.000025
 20,-0.00001630,0.00000231,0.00000289,0.00000654,0.00000586,-0.00001786
 ,-0.00000845,0.00000061,0.00000278,-0.00000050,0.00000790,-0.00002903,
 0.00002146,-0.00000320,0.00000647,-0.00001039,-0.00000043,0.00000105,0
 .00000112,-0.00001510,-0.00001054,0.00000492,0.00000062,0.00001647,0.0
 0000136,0.00001262,-0.00001851,-0.00000893,0.00001549,-0.00000204,-0.0
 0001944,0.00000002,0.00001544,-0.00000602,-0.00000637,0.00001532,-0.00
 000679,0.00000603,-0.00002291,-0.00000613,-0.00003206,-0.00006370,-0.0
 0001042,0.00000334,0.00003741,0.00005539,-0.00000401,-0.00001121,-0.00
 001421,-0.00000276,-0.00002125,-0.00001202,0.00000400,0.00000173,0.000
 00520,-0.00000508,-0.00000452,-0.00001112,0.00000071,0.00000093,0.0000
 0025,0.00000055,0.00000012,-0.00000077,0.00000075,-0.00000632,0.000000
 19,-0.00000320,-0.00001793,0.00001377,-0.00001594,-0.00000082,0.000020
 45,-0.00000999,0.00001545,0.00000876,-0.00002730,0.00004076,-0.0000011
 9,0.00001604,-0.00000825,-0.00001334,-0.00000066,-0.00000135,0.0000031
 7,-0.00000196,-0.00000123,0.00000249,-0.00000176,0.00000251,-0.0000009
 3,-0.00017566,-0.00001911,-0.00016216,0.00025423,0.00019926,-0.0000505
 0,0.00029902,-0.00055386,-0.00000460,-0.00477072,0.00137220,-0.0004181
 8,0.00033490,0.00083492,0.00021411,-0.00012860,-0.00001359,-0.00004036
 ,0.00000033,0.00004893,-0.00004631,-0.00003266,-0.00004070,0.00000438,
 -0.00000664,0.00000425,0.00000814,0.00001331,0.00000002,-0.00001556,0.
 00001128,0.00001318,-0.00001561,0.00000227,-0.00000092,-0.00000395,-0.
 00000929,0.00001160,-0.00000287,0.00000500,0.00000356,-0.00000721,0.00
 007795,0.00004112,-0.00002934,0.00000523,-0.00001169,0.00000758,0.0000
 2327,-0.00001684,-0.00008748,0.00001694,0.00001537,0.00002399,0.000006
 54,0.00000160,-0.00000923,-0.00000378,0.00001215,0.00001161,-0.0000068
 0,0.00000085,-0.00000128,-0.00001866,0.00000484,0.00001443,-0.00000467
 ,0.00000136,-0.00000208,0.00001865,0.00000937,0.00001083,-0.00000853,0
 .00000883,-0.00000179,-0.00002931,0.00000129,0.00004061,-0.00000249,-0
 .00000561,-0.00001563,0.00003315,-0.00004474,-0.00002962,0.00001661,0.
 00001800,-0.00002075,0.00000071,0.00000366,0.00000006,0.00001316,-0.00
 001608,0.00000196,-0.00000024,-0.00000104,0.00000153,-0.00001643,-0.00
 000341,0.00000501,-0.00000020,-0.00000135,0.00000063,0.00000539,0.0000
 1737,-0.00000242,0.00000170,-0.00000303,0.00000042,-0.00002636,-0.0000
 2025,-0.00000623,-0.00000012,0.00000273,0.00000336,-0.00003089,-0.0000
 6055,-0.00010283,-0.00000199,0.00000074,-0.00000671,-0.00001687,-0.000
 00640,0.00000631,-0.00001321,0.00000270,-0.00000464,0.00000718,0.00000
 015,-0.00000395,0.00000822,0.00000438,-0.00000496,0.00000102,-0.000000
 54,-0.00000230,-0.00000356,0.00000727,-0.00000184,0.00000229,0.0000011
 1,-0.00000282,0.00003845,0.00000920,-0.00000943,0.00000009,0.00000210,
 0.00000311,-0.00196858,-0.00123959,0.00264943,-0.00199602,0.00161420,0
 .00177522,-0.05529768,-0.12986712,-0.24962867,-0.00271169,-0.01374827,
 -0.01231667,0.00186239,0.00082079,-0.00005347,0.00178487,0.00065491,-0
 .00031302,0.06252423,0.13983897,0.25865548,0.00006796,0.00009615,0.000
 14401,-0.00000867,-0.00000679,-0.00001753,0.00000753,0.00000614,0.0000
 0501,-0.00000564,-0.00001083,0.00000155,0.00000092,0.00000176,0.000000
 45,0.00000566,-0.00001045,0.00001319,-0.00001241,-0.00000464,-0.000009
 59,-0.00000051,0.00000372,-0.00000076,-0.00005598,-0.00001052,-0.00000
 008,0.00000244,0.00006281,-0.00002423,-0.00000637,0.00000457,0.0000106
 8,0.00000309,0.00002204,-0.00001332,0.00001091,0.00002929,-0.00003423,
 -0.00007738,0.00009804,0.00001848,0.00003158,-0.00000996,-0.00002339,0
 .00002581,-0.00005391,-0.00001868,-0.00000326,0.00010295,0.00001323,-0
 .00001058,-0.00003617,-0.00001016,0.00001496,-0.00007545,0.00000841,0.
 00000262,-0.00000737,0.00000207,-0.00000202,-0.00000386,-0.00000411,0.
 00000368,0.00000278,0.00000275,-0.00000055,0.00000121,-0.00000018,0.00
 007007,-0.00007967,-0.00000394,-0.00000213,-0.00005314,0.00003441,-0.0
 0001023,-0.00000701,0.00001730,0.00000379,-0.00001751,-0.00000250,-0.0
 0001867,0.00002124,-0.00000381,0.00001149,-0.00000256,-0.00000513,-0.0
 0000038,0.00000012,0.00000033,-0.00000239,-0.00000184,0.00000077,-0.00
 000049,0.00000102,-0.00000001,-0.00002991,-0.00016649,-0.00020206,-0.0
 0211241,0.00032769,0.00049779,0.00025237,0.00037319,0.00040565,0.00284
 080,0.00294859,-0.00515314,-0.00322093,0.01485146,0.00151947,-0.000105
 38,0.00002982,-0.00015280,-0.00003303,0.00000202,0.00000781,-0.0000086
 9,-0.00000134,0.00000944,0.00000239,0.00000861,-0.00000340,0.00000313,
 0.00000049,-0.00000029,0.00000180,-0.00000164,-0.00000020,0.00000173,0
 .00000079,-0.00000144,-0.00001092,0.00001168,-0.00001222,0.00000188,0.
 00000760,-0.00000322,0.00005819,0.00000056,-0.00003983,0.00000364,-0.0
 0000025,0.00000226,-0.00005568,0.00004013,-0.00009527,0.00003186,0.000
 04513,0.00000409,0.00000135,-0.00000499,-0.00001601,-0.00001383,0.0000
 0788,0.00001551,-0.00000464,0.00000493,0.00000528,-0.00000322,-0.00000
 928,0.00000281,-0.00000351,0.00000073,-0.00000147,0.00001095,0.0000136
 1,0.00000676,-0.00000640,0.00000477,0.00000065,-0.00005135,-0.00000462
 ,0.00004293,-0.00000168,-0.00000175,-0.00000465,0.00019014,0.00026268,
 0.00004610,-0.00035250,-0.00041958,0.00034298,-0.00002384,0.00002357,-
 0.00002024,-0.00019914,0.00006819,0.00002424,-0.00000605,0.00000759,-0
 .00001686,0.00012407,0.00005079,-0.00007951,-0.00000112,0.00000527,0.0
 0001328,-0.00003150,-0.00004838,-0.00003066,-0.00001937,0.00004316,0.0
 0001554,0.00038028,-0.00016013,0.00000673,-0.00006016,0.00002062,0.000
 27621,0.00042985,0.00017568,0.00061472,0.00006371,0.00001008,-0.000037
 16,-0.00001940,-0.00010145,0.00014601,0.00000542,-0.00002186,-0.000046
 13,-0.00000639,-0.00000732,0.00000713,0.00000790,0.00000370,0.00002839
 ,-0.00000483,0.00001134,-0.00000382,0.00000120,-0.00004945,0.00003812,
 -0.00001172,-0.00001466,0.00000964,-0.00022184,0.00001373,0.00003372,-
 0.00001218,0.00001293,0.00000692,-0.07992069,0.09891949,0.00359227,0.0
 0650134,-0.00667024,-0.00176060,0.00495687,0.00111614,-0.00367724,-0.0
 0064386,-0.00054224,-0.00001284,-0.00074123,-0.00034882,0.00044812,-0.
 00265004,-0.00135625,0.00189503,0.00016820,-0.00034292,-0.00010017,0.0
 7450351,-0.00000740,-0.00000038,0.00004561,0.00000878,-0.00000744,-0.0
 0000612,0.00000244,-0.00000171,-0.00000098,0.00000302,0.00000031,0.000
 00253,0.00000065,-0.00000051,0.00000010,-0.00000146,0.00000376,-0.0000
 0098,-0.00000234,-0.00000069,0.00000386,-0.00000141,0.00000021,-0.0000
 0078,-0.00001289,0.00000036,0.00000403,-0.00000220,0.00000955,-0.00000
 306,-0.00000175,-0.00000326,0.00000321,-0.00000450,0.00000562,0.000004
 00,0.00000414,0.00000009,-0.00000632,-0.00002921,0.00003657,0.00001124
 ,0.00000799,0.00000285,-0.00001048,-0.00000516,0.00001483,0.00000604,0
 .00002654,0.00004068,-0.00003718,-0.00002789,-0.00001837,0.00000646,0.
 00000367,-0.00002643,0.00001422,-0.00000345,-0.00000521,0.00000246,0.0
 0000089,0.00000041,0.00000254,0.00000123,-0.00000042,0.00000015,-0.000
 00172,0.00000075,-0.00000054,0.00002859,-0.00002912,-0.00000206,0.0000
 0090,-0.00000548,0.00000195,0.00000268,-0.00000105,-0.00000307,0.00000
 198,-0.00000137,-0.00000056,0.00000073,-0.00000257,0.00000180,-0.00000
 163,0.,-0.00000290,0.,0.00000032,0.00000067,0.00000046,0.00000032,0.00
 000032,0.00000018,-0.00000036,0.00000034,0.00005013,0.00000373,-0.0000
 4590,-0.00095176,-0.00116166,-0.00069252,-0.00009542,-0.00007638,-0.00
 040369,0.00250737,0.00152144,0.00059690,0.00311501,-0.00691740,-0.0008
 6561,0.00006150,-0.00000889,-0.00001532,-0.00001021,-0.00000196,0.0000
 2080,0.00001321,0.00000084,-0.00000690,0.00000212,0.00000583,-0.000001
 48,-0.00000563,-0.00000843,0.00000248,-0.00000727,-0.00000577,0.000010
 30,-0.00000025,-0.00000248,0.00000045,0.00000328,0.00000445,0.00000584
 ,-0.00000235,-0.00000134,0.00000284,-0.00002963,-0.00002272,0.00000579
 ,-0.00000029,0.00000028,-0.00000705,0.00007131,-0.00007615,0.00014627,
 -0.00001366,-0.00001958,-0.00000174,-0.00000024,0.00000214,0.00000133,
 -0.00000814,0.00000176,-0.00000581,0.00000272,-0.00000056,-0.00000040,
 0.00000105,-0.00001328,0.00000327,0.00000156,-0.00000043,0.00000080,0.
 00000492,-0.00000842,-0.00002327,0.00000131,-0.00000324,-0.00000427,0.
 00003228,0.00002263,-0.00000706,0.00000542,0.00000050,0.00000744,-0.00
 118415,0.00040526,-0.00107730,0.00006203,0.00013860,0.00001968,0.00003
 418,0.00001775,0.00003028,-0.00003870,-0.00000689,0.00002423,0.0000059
 8,-0.00000212,-0.00000409,0.00003539,-0.00005071,0.00003867,0.00000483
 ,0.00000557,0.00000763,0.00003647,-0.00031704,0.00000534,-0.00000325,0
 .00000709,-0.00000939,0.00044714,-0.00024410,-0.00052436,-0.00009714,0
 .00000617,-0.00002169,0.00027040,0.00011116,0.00027655,0.00015179,0.00
 006412,0.00024809,-0.00011898,-0.00021196,0.00014038,-0.00009461,-0.00
 000657,-0.00011850,-0.00000270,-0.00000492,0.00001217,0.00003017,0.000
 00763,-0.00000726,-0.00000292,0.00000331,-0.00002092,-0.00000057,-0.00
 001667,0.00000407,-0.00000836,-0.00000821,0.00000080,-0.00015893,-0.00
 000179,0.00002414,-0.00000878,0.00000569,-0.00001280,0.09970473,-0.303
 71467,-0.02737449,0.00669894,-0.00886224,0.00157170,0.00055991,0.00102
 700,-0.00365239,-0.00050381,0.00058087,0.00016336,-0.00027892,-0.00021
 424,0.00014140,-0.00133172,0.00019886,0.00085750,0.00026454,-0.0004592
 9,0.00013615,-0.10921314,0.31829516,-0.00003903,0.00008914,-0.00008345
 ,-0.00000622,-0.00001703,0.00002614,-0.00000082,0.00001030,0.00000348,
 -0.00001572,0.00000214,0.00000133,0.00000089,-0.00000089,0.00000236,-0
 .00000563,0.00001937,-0.00000778,0.00000167,0.00000011,-0.00000614,0.0
 0000516,0.00000017,0.00000124,0.00004149,-0.00001744,-0.00002763,0.000
 00327,-0.00001655,-0.00000282,-0.00001540,0.00004291,0.00000791,-0.000
 01646,-0.00000552,0.00002564,-0.00000548,-0.00000955,0.00001267,-0.000
 07106,0.00010887,0.00002725,-0.00002650,-0.00001251,0.00003081,0.00004
 840,-0.00004829,-0.00001023,-0.00010860,0.00013686,0.00001461,0.000049
 31,-0.00002390,-0.00000195,0.00004081,-0.00005392,0.00002063,0.0000069
 8,-0.00001609,-0.00001027,0.00000056,-0.00000183,-0.00000085,0.0000056
 4,0.00000260,0.00000485,0.00000188,0.00000040,0.00000285,0.00008115,-0
 .00007855,-0.00001303,0.00000513,0.00000390,-0.00001064,0.00002252,-0.
 00000217,-0.00003045,0.00001879,-0.00004238,-0.00001854,0.00002230,-0.
 00003563,-0.00000450,-0.00000879,0.00000906,0.00002194,0.00000077,0.00
 000027,-0.00000572,-0.00000025,-0.00000017,-0.00000342,0.00000112,-0.0
 0000157,-0.00000018,-0.00000657,-0.00021802,0.00008252,0.00036408,0.00
 181791,-0.00039069,-0.00001102,0.00067159,0.00073368,-0.00501474,0.000
 39972,-0.00148982,-0.00721778,0.02063300,0.00559006,-0.00014169,0.0000
 1847,-0.00008329,0.00001445,-0.00000800,-0.00000485,-0.00002309,-0.000
 00754,0.00001432,-0.00000537,0.00000339,-0.00000938,0.00000769,0.00000
 911,0.00000027,0.00001088,0.00000560,-0.00001120,0.00000089,0.00000515
 ,-0.00000189,-0.00001429,0.00000058,-0.00002003,0.00000415,0.00000727,
 -0.00000656,0.00007013,0.00003525,-0.00003541,0.00000463,0.00000548,0.
 00001236,-0.00024822,0.00017759,-0.00039363,0.00001805,0.00005458,0.00
 000291,0.00000414,-0.00000391,0.00000201,0.00001875,-0.00001524,0.0000
 0864,-0.00000477,0.00000308,0.00000658,-0.00000388,0.00003643,-0.00000
 723,-0.00000355,0.00000171,-0.00000088,-0.00000838,0.00001960,0.000062
 81,-0.00000503,0.00000837,0.00000655,-0.00005444,-0.00003855,0.0000365
 2,-0.00001278,-0.00000201,-0.00002085,-0.00032210,0.00015167,-0.000483
 74,-0.00021791,-0.00031082,0.00017299,0.00004529,0.00002982,0.00001138
 ,-0.00008211,0.00031018,-0.00012542,0.00000802,0.00002340,-0.00000622,
 0.00032120,0.00009121,-0.00011436,0.00002432,0.00004212,0.00000507,0.0
 0007106,-0.00049480,0.00012894,-0.00003731,0.00002540,0.00002944,0.000
 22350,-0.00054864,-0.00034378,0.00021628,-0.00006579,-0.00033147,-0.00
 016220,-0.00027830,-0.00041281,-0.00009206,-0.00004860,-0.00006593,0.0
 0010300,0.00017222,-0.00006328,0.00006465,-0.00000551,0.00005495,-0.00
 000994,0.00000092,0.00000401,-0.00002453,-0.00000865,0.00000820,-0.000
 00064,-0.00000251,0.00001343,-0.00002057,0.00003323,-0.00001139,0.0000
 0390,0.00001348,0.00000116,0.00011078,-0.00002405,-0.00003293,0.000001
 32,-0.00000485,0.00000150,0.00287060,-0.02646859,-0.05550331,0.0091756
 8,-0.02363574,0.00219321,-0.00377652,-0.00335083,-0.00239282,-0.000211
 52,0.00009734,-0.00120120,0.00041467,0.00020298,-0.00014718,0.00179543
 ,0.00108939,-0.00000031,0.00042294,-0.00105945,-0.00001724,0.00130462,
 0.03036105,0.05457942\\0.00000005,0.00000089,-0.00000102,0.00000023,-0
 .00000054,0.00000081,-0.00000006,-0.00000030,0.00000003,-0.00000028,-0
 .00000027,-0.00000052,-0.00000020,-0.00000073,-0.00000035,0.00000002,-
 0.00000076,-0.00000078,-0.00000020,-0.00000066,-0.00000030,-0.00000007
 ,-0.00000029,-0.00000022,0.00000066,-0.00000040,0.00000062,-0.00000031
 ,-0.00000034,-0.00000016,0.00000024,-0.00000006,0.00000007,0.00000026,
 0.00000014,0.00000025,0.00000024,-0.00000008,0.00000007,0.00000078,-0.
 00000044,0.00000065,-0.00000012,0.00000021,-0.00000028,-0.00000019,-0.
 00000158,0.00000016,0.00000172,-0.00000037,0.00000042,0.00000053,-0.00
 000057,0.00000037,0.00000018,-0.00000052,0.00000045,0.00000027,-0.0000
 0065,0.00000041,0.00000026,-0.00000103,0.00000028,0.00000013,-0.000000
 86,0.00000009,0.00000023,-0.00000068,0.00000024,0.00000017,0.00000013,
 0.00000086,0.00000028,-0.00000010,0.00000064,-0.00000004,0.00000002,0.
 00000036,0.00000006,0.00000018,0.00000012,0.00000004,-0.00000032,-0.00
 000006,-0.00000026,-0.00000099,-0.00000107,0.00000006,0.00000018,0.000
 00014,-0.00000013,-0.00000069,-0.00000035,-0.00000041,-0.00000072,-0.0
 0000073,-0.00000122,0.00000134,0.00000032,-0.00000012,0.00000015,0.000
 00133,0.00000080,-0.00000026,0.00000055,0.00000020,0.00000084,-0.00000
 004,0.00000005,0.00000032,0.00000010,-0.00000068,-0.00000102,-0.000001
 84,-0.00000037,0.00000074,0.00000026,-0.00000004,0.00000021,-0.0000002
 9,-0.00000007,0.00000010,-0.00000023,-0.00000023,0.00000020,-0.0000003
 4,-0.00000039,-0.00000024,-0.00000058,-0.00000033,-0.00000011,-0.00000
 050,-0.00000023,-0.00000013,-0.00000048,-0.00000025,-0.00000042,-0.000
 00052,-0.00000028,-0.00000011,-0.00000041,-0.00000023,-0.00000018,-0.0
 0000047,-0.00000127,-0.00000015,-0.00000099,-0.00000051,-0.00000004,-0
 .00000116,-0.00000023,0.00000023,-0.00000015,-0.00000052,0.00000011,-0
 .00000101,-0.00000040,0.,-0.00000029,-0.00000055,0.00000024,-0.0000009
 7,-0.00000046,0.00000019,-0.00000074,-0.00000054,0.00000006,-0.0000006
 5,-0.00000055,0.00000005,-0.00000081,0.00000061,0.,0.00000060,-0.00000
 058,0.00000009,-0.00000080,0.00000012,0.00000006,-0.00000017,0.0000005
 4,0.00000028,0.00000164,0.00000024,0.00000026,0.00000043,0.00000044,0.
 00000027,0.00000091,0.00000055,0.00000021,0.00000077,0.00000040,0.0000
 0043,0.00000090,0.00000056,0.00000041,0.00000100,0.00000043,0.00000038
 ,0.00000088,0.00000051,0.00000046,0.00000087,0.00000022,0.00000016,-0.
 00000030,0.00000017,0.00000046,0.00000066,-0.00000071,-0.00000007,0.00
 000020,0.00000006,0.00000061,-0.00000009,0.00000016,0.00000056,-0.0000
 0003,0.00000003,0.00000007,0.00000003,-0.00000002,0.00000039,0.0000000
 5,0.00000013,0.00000018,0.00000016,-0.00000005,-0.00000003,0.00000005,
 -0.00000012,0.00000011,0.00000004,0.00000017,-0.00000028,0.00000011,0.
 00000060,-0.00000058,0.00000005,0.00000025,-0.00000001,0.00000058,0.00
 000003,0.00000047,0.00000017,0.,0.00000071,0.00000006,-0.00000004,0.00
 000080,-0.00000007,-0.00000016,0.00000058,-0.00000013,-0.00000030,0.00
 000059,-0.00000028,0.00000003,0.00000100,0.00000018,-0.00000020,0.0000
 0097,-0.00000010,0.00000025,0.00000054,0.00000031\\\@


 WE SHOULD BE CAREFUL TO GET OUT OF AN EXPERIENCE ONLY THE WISDOM
 THAT IS IN IT -- AND STOP THERE;
 LEST WE BE LIKE THE CAT THAT SITS DOWN ON A HOT STOVE-LID.
 SHE WILL NEVER SIT DOWN ON A HOT STOVE LID AGAIN;
 BUT ALSO SHE WILL NEVER SIT DOWN ON A COLD ONE ANY MORE.

                                                     -- MARK TWAIN
 Job cpu time:       1 days  0 hours 23 minutes 46.9 seconds.
 File lengths (MBytes):  RWF=   9863 Int=      0 D2E=      0 Chk=     81 Scr=      1
 Normal termination of Gaussian 09 at Thu Jun  5 01:16:19 2025.
