 Entering Gaussian System, Link 0=g09
 Input=ts-dcype-v1-released.com
 Output=ts-dcype-v1-released.log
 Initial command:
 /cluster/apps/gaussian/g09/l1.exe "/cluster/scratch/sroediger/michael/Gau-79244.inp" -scrdir="/cluster/scratch/sroediger/michael/"
 Entering Link 1 = /cluster/apps/gaussian/g09/l1.exe PID=     79252.
  
 Copyright (c) 1988,1990,1992,1993,1995,1998,2003,2009,2013,
            Gaussian, Inc.  All Rights Reserved.
  
 This is part of the Gaussian(R) 09 program.  It is based on
 the Gaussian(R) 03 system (copyright 2003, Gaussian, Inc.),
 the Gaussian(R) 98 system (copyright 1998, Gaussian, Inc.),
 the Gaussian(R) 94 system (copyright 1995, Gaussian, Inc.),
 the Gaussian 92(TM) system (copyright 1992, Gaussian, Inc.),
 the Gaussian 90(TM) system (copyright 1990, Gaussian, Inc.),
 the Gaussian 88(TM) system (copyright 1988, Gaussian, Inc.),
 the Gaussian 86(TM) system (copyright 1986, Carnegie Mellon
 University), and the Gaussian 82(TM) system (copyright 1983,
 Carnegie Mellon University). Gaussian is a federally registered
 trademark of Gaussian, Inc.
  
 This software contains proprietary and confidential information,
 including trade secrets, belonging to Gaussian, Inc.
  
 This software is provided under written license and may be
 used, copied, transmitted, or stored only in accord with that
 written license.
  
 The following legend is applicable only to US Government
 contracts under FAR:
  
                    RESTRICTED RIGHTS LEGEND
  
 Use, reproduction and disclosure by the US Government is
 subject to restrictions as set forth in subparagraphs (a)
 and (c) of the Commercial Computer Software - Restricted
 Rights clause in FAR 52.227-19.
  
 Gaussian, Inc.
 340 Quinnipiac St., Bldg. 40, Wallingford CT 06492
  
  
 ---------------------------------------------------------------
 Warning -- This program may not be used in any manner that
 competes with the business of Gaussian, Inc. or will provide
 assistance to any competitor of Gaussian, Inc.  The licensee
 of this program is prohibited from giving any competitor of
 Gaussian, Inc. access to this program.  By using this program,
 the user acknowledges that Gaussian, Inc. is engaged in the
 business of creating and licensing software in the field of
 computational chemistry and represents and warrants to the
 licensee that it is not a competitor of Gaussian, Inc. and that
 it will not use this program in any manner prohibited above.
 ---------------------------------------------------------------
  

 Cite this work as:
 Gaussian 09, Revision D.01,
 M. J. Frisch, G. W. Trucks, H. B. Schlegel, G. E. Scuseria, 
 M. A. Robb, J. R. Cheeseman, G. Scalmani, V. Barone, B. Mennucci, 
 G. A. Petersson, H. Nakatsuji, M. Caricato, X. Li, H. P. Hratchian, 
 A. F. Izmaylov, J. Bloino, G. Zheng, J. L. Sonnenberg, M. Hada, 
 M. Ehara, K. Toyota, R. Fukuda, J. Hasegawa, M. Ishida, T. Nakajima, 
 Y. Honda, O. Kitao, H. Nakai, T. Vreven, J. A. Montgomery, Jr., 
 J. E. Peralta, F. Ogliaro, M. Bearpark, J. J. Heyd, E. Brothers, 
 K. N. Kudin, V. N. Staroverov, T. Keith, R. Kobayashi, J. Normand, 
 K. Raghavachari, A. Rendell, J. C. Burant, S. S. Iyengar, J. Tomasi, 
 M. Cossi, N. Rega, J. M. Millam, M. Klene, J. E. Knox, J. B. Cross, 
 V. Bakken, C. Adamo, J. Jaramillo, R. Gomperts, R. E. Stratmann, 
 O. Yazyev, A. J. Austin, R. Cammi, C. Pomelli, J. W. Ochterski, 
 R. L. Martin, K. Morokuma, V. G. Zakrzewski, G. A. Voth, 
 P. Salvador, J. J. Dannenberg, S. Dapprich, A. D. Daniels, 
 O. Farkas, J. B. Foresman, J. V. Ortiz, J. Cioslowski, 
 and D. J. Fox, Gaussian, Inc., Wallingford CT, 2013.
 
 ******************************************
 Gaussian 09:  ES64L-G09RevD.01 24-Apr-2013
                29-Feb-2024 
 ******************************************
 %nprocshared=16
 Will use up to   16 processors via shared memory.
 %mem=32GB
 %oldchk=ts-dcype-v1.chk
 %chk=ts-dcype-v1-released.chk
 Copying data from "ts-dcype-v1.chk" to current chk file "ts-dcype-v1-released.chk".
 ----------------------------------------------------------------------
 #p opt(ts,readfc,noeigentest,nofreeze) freq=noraman geom=allcheck pbe1
 pbe genecp temperature=298 integral(grid=ultrafine) empiricaldispersio
 n=gd3bj
 ----------------------------------------------------------------------
 1/5=1,10=3,11=1,14=-1,18=20,26=4,29=2007,38=1,112=298000/1,3;
 2/9=110,12=2,40=1/2;
 3/5=7,11=2,14=-4,16=1,17=8,25=1,30=1,71=1,74=-13,75=-5,124=41/1,2,3;
 4//1;
 5/5=2,38=5/2;
 6/7=2,8=2,9=2,10=2,28=1/1;
 7//1,2,3,16;
 1/5=1,11=1,14=-1,18=20,26=4/3(2);
 2/9=110/2;
 99//99;
 2/9=110/2;
 3/5=7,6=1,11=2,14=-2,16=1,17=8,25=1,30=1,71=1,74=-13,75=-5,82=7,124=41/1,2,3;
 4/5=5,16=3,69=1/1;
 5/5=2,38=5/2;
 7//1,2,3,16;
 1/5=1,11=1,14=-1,18=20,26=4/3(-5);
 2/9=110/2;
 6/7=2,8=2,9=2,10=2,19=2,28=1/1;
 99/9=1/99;
 Leave Link    1 at Thu Feb 29 18:58:19 2024, MaxMem=  4294967296 cpu:         8.7
 (Enter /cluster/apps/gaussian/g09/l101.exe)
 Structure from the checkpoint file:  "ts-dcype-v1-released.chk"
 -----
 title
 -----
 Charge =  0 Multiplicity = 1
 Redundant internal coordinates found in file.
 C,0,-0.9779655642,0.5562668748,1.3896090572
 C,0,-1.178965442,0.5013216774,2.7967800806
 H,0,-0.380643434,0.1378112593,3.4469083386
 C,0,-2.4207442193,0.8069723558,3.3271095661
 H,0,-2.6086659978,0.6906986739,4.397376478
 C,0,-3.4884669876,1.2430016817,2.5161676436
 C,0,-3.2618907006,1.4646827526,1.1621858267
 H,0,-4.0220692503,1.9086656223,0.5209072853
 C,0,-2.0049225135,1.1688894086,0.6099346346
 C,0,-1.4925970915,1.6296867464,-0.6543966751
 C,0,-2.1847368703,2.0261464863,-1.7973274009
 C,0,-1.5074744801,2.5239292748,-2.9011920654
 C,0,-0.1160567811,2.6372225281,-2.858354629
 C,0,0.6020238012,2.2556994709,-1.7270767539
 C,0,-0.0736404141,1.7447091478,-0.6176886542
 N,0,0.4703684625,1.2315641926,0.5730675943
 S,0,1.6258548543,1.9793392241,1.5183779529
 O,0,1.9411856358,1.014099545,2.568368092
 O,0,2.6854452361,2.5894761078,0.7374287177
 C,0,0.6991786077,3.2837169622,2.3506306825
 Cl,0,0.0954982789,4.5049614552,1.2389330535
 H,0,1.4041750863,3.7319404599,3.0642567952
 H,0,-0.1375929233,2.7961640787,2.8711648194
 F,0,1.9207733047,2.3486874559,-1.7909260779
 F,0,0.5368582437,3.0642722971,-3.9307396915
 F,0,-2.1612280739,2.8709987001,-3.9993962878
 F,0,-3.5128206886,1.9142864833,-1.8591957617
 O,0,-4.6702890331,1.4613523911,3.1497074477
 C,0,-5.7509546693,1.8934744209,2.3805119664
 H,0,-5.9934032824,1.1784063401,1.5718436928
 H,0,-5.5673847926,2.8830079552,1.9227930688
 H,0,-6.613542364,1.9724873275,3.0551303972
 Pd,0,0.3445122457,-0.855695003,0.6759996276
 P,0,-0.7825513973,-2.8212964943,0.8838893149
 C,0,0.2893560244,-4.250243296,0.3421811559
 C,0,-2.3081508757,-2.9694604787,-0.153057198
 C,0,-1.3115517966,-3.2239883035,2.6053705565
 C,0,1.7122360077,-3.9046087025,-0.1368805823
 H,0,0.3368435986,-4.9518803533,1.1885375854
 H,0,-0.2615751896,-4.7785910453,-0.4507201502
 C,0,-3.4503510266,-2.1523949225,0.4561483108
 C,0,-1.9833300821,-2.4836828939,-1.5694187968
 H,0,-2.6018980986,-4.0358815518,-0.1952787204
 C,0,-2.0607912232,-4.5433511388,2.7857457818
 C,0,-0.123015024,-3.1232367346,3.5627790829
 H,0,-1.9938571101,-2.3878205015,2.8485730926
 P,0,2.2044911286,-2.1014266783,-0.0829782253
 H,0,1.8514020224,-4.2390500731,-1.1758529672
 H,0,2.4522554769,-4.4628070562,0.4556736479
 C,0,-4.6738538517,-2.1124786554,-0.4535492127
 H,0,-3.0968243108,-1.1235959347,0.6334436565
 H,0,-3.7344974899,-2.5582778383,1.4389535059
 C,0,-3.2153587105,-2.4559891987,-2.4659669671
 H,0,-1.5593547225,-1.4654749331,-1.4934579396
 H,0,-1.1959255276,-3.1107936163,-2.0193918228
 C,0,-2.4947470481,-4.7336251364,4.2375634086
 H,0,-1.4038106149,-5.3824905223,2.4928147235
 H,0,-2.9374348814,-4.588106741,2.1203114424
 C,0,-0.5626419346,-3.3150298504,5.0097515732
 H,0,0.6259015477,-3.8945653213,3.3053003741
 H,0,0.3782497514,-2.1517364034,3.4310347643
 C,0,2.796753624,-1.7655657063,-1.8047218413
 C,0,3.7171765805,-2.0408966104,0.9777988611
 C,0,-4.3247112477,-1.612730269,-1.8496881999
 H,0,-5.446474045,-1.4726118118,0.0032670333
 H,0,-5.1109302622,-3.1254121222,-0.5267933802
 H,0,-2.9409514321,-2.0689457798,-3.460617782
 H,0,-3.5809764697,-3.4874817257,-2.6218175134
 C,0,-1.3139697552,-4.6283659315,5.1964525369
 H,0,-3.0032283718,-5.7042681285,4.355229974
 H,0,-3.2401622242,-3.9588162482,4.4917959934
 H,0,0.3119336008,-3.2702209854,5.6785644181
 H,0,-1.2185512367,-2.4734815216,5.2966752247
 C,0,1.5807690553,-1.6844850108,-2.733263397
 C,0,3.5979217297,-0.4629425895,-1.8473057175
 H,0,3.4434642289,-2.6026789297,-2.1300575001
 C,0,3.3325229302,-2.2727397165,2.4400883922
 C,0,4.8785820312,-2.9342895009,0.5466570315
 H,0,4.0306158487,-0.9838656774,0.8944817933
 H,0,-5.217516941,-1.6210101238,-2.4955039579
 H,0,-3.9937418239,-0.561821659,-1.7881314626
 H,0,-1.656426922,-4.7318487908,6.2386088063
 H,0,-0.6218849305,-5.4705452896,5.0124925862
 C,0,1.9703558156,-1.3080558642,-4.1578672708
 H,0,0.8857406377,-0.9257365501,-2.3289362866
 H,0,1.0276936568,-2.6383280263,-2.727657513
 C,0,3.9680451793,-0.0660498284,-3.2737705523
 H,0,3.0029813574,0.341022404,-1.3834906178
 H,0,4.5142701983,-0.5549860668,-1.2441043946
 C,0,4.5371046115,-2.1201374484,3.3618304077
 H,0,2.9122979967,-3.289355947,2.5544231773
 H,0,2.541272274,-1.5605522799,2.7209427212
 C,0,6.0763754111,-2.7709396448,1.4798778434
 H,0,4.5557399129,-3.9912549402,0.5599404591
 H,0,5.1740150567,-2.7128167305,-0.4915183559
 C,0,2.7513103932,-0.0001872559,-4.188776782
 H,0,1.0664148181,-1.2350940079,-4.784137907
 H,0,2.5876439467,-2.1151581145,-4.5930712287
 H,0,4.4894984888,0.9039639411,-3.2594115636
 H,0,4.6863730149,-0.8025009378,-3.6786960857
 C,0,5.69195318,-3.0186664157,2.9343036491
 H,0,4.2435462889,-2.3343774,4.4022155503
 H,0,4.8639565492,-1.0654857626,3.3428375281
 H,0,6.8891871246,-3.448941802,1.1725556109
 H,0,6.4719082799,-1.7444118491,1.3785192484
 H,0,3.0610210323,0.237339353,-5.2191559363
 H,0,2.0987305382,0.8278225023,-3.8660917282
 H,0,6.5631406525,-2.8662776611,3.5916848098
 H,0,5.3940684426,-4.076695608,3.0545884223
 Recover connectivity data from disk.
 Any frozen variables have been unfrozen.
 NAtoms=    109 NQM=      109 NQMF=       0 NMMI=      0 NMMIF=      0
                NMic=       0 NMicF=      0.
                    Isotopes and Nuclear Properties:
 (Nuclear quadrupole moments (NQMom) in fm**2, nuclear magnetic moments (NMagM)
  in nuclear magnetons)

  Atom         1           2           3           4           5           6           7           8           9          10
 IAtWgt=          12          12           1          12           1          12          12           1          12          12
 AtmWgt=  12.0000000  12.0000000   1.0078250  12.0000000   1.0078250  12.0000000  12.0000000   1.0078250  12.0000000  12.0000000
 NucSpn=           0           0           1           0           1           0           0           1           0           0
 AtZEff=  -3.6000000  -3.6000000  -1.0000000  -3.6000000  -1.0000000  -3.6000000  -3.6000000  -1.0000000  -3.6000000  -3.6000000
 NQMom=    0.0000000   0.0000000   0.0000000   0.0000000   0.0000000   0.0000000   0.0000000   0.0000000   0.0000000   0.0000000
 NMagM=    0.0000000   0.0000000   2.7928460   0.0000000   2.7928460   0.0000000   0.0000000   2.7928460   0.0000000   0.0000000
 AtZNuc=   6.0000000   6.0000000   1.0000000   6.0000000   1.0000000   6.0000000   6.0000000   1.0000000   6.0000000   6.0000000

  Atom        11          12          13          14          15          16          17          18          19          20
 IAtWgt=          12          12          12          12          12          14          32          16          16          12
 AtmWgt=  12.0000000  12.0000000  12.0000000  12.0000000  12.0000000  14.0030740  31.9720718  15.9949146  15.9949146  12.0000000
 NucSpn=           0           0           0           0           0           2           0           0           0           0
 AtZEff=  -3.6000000  -3.6000000  -3.6000000  -3.6000000  -3.6000000  -4.5500000 -13.6000000  -5.6000000  -5.6000000  -3.6000000
 NQMom=    0.0000000   0.0000000   0.0000000   0.0000000   0.0000000   2.0440000   0.0000000   0.0000000   0.0000000   0.0000000
 NMagM=    0.0000000   0.0000000   0.0000000   0.0000000   0.0000000   0.4037610   0.0000000   0.0000000   0.0000000   0.0000000
 AtZNuc=   6.0000000   6.0000000   6.0000000   6.0000000   6.0000000   7.0000000  16.0000000   8.0000000   8.0000000   6.0000000

  Atom        21          22          23          24          25          26          27          28          29          30
 IAtWgt=          35           1           1          19          19          19          19          16          12           1
 AtmWgt=  34.9688527   1.0078250   1.0078250  18.9984033  18.9984033  18.9984033  18.9984033  15.9949146  12.0000000   1.0078250
 NucSpn=           3           1           1           1           1           1           1           0           0           1
 AtZEff= -14.2400000  -1.0000000  -1.0000000  -6.7500000  -6.7500000  -6.7500000  -6.7500000  -5.6000000  -3.6000000  -1.0000000
 NQMom=   -8.1650000   0.0000000   0.0000000   0.0000000   0.0000000   0.0000000   0.0000000   0.0000000   0.0000000   0.0000000
 NMagM=    0.8218740   2.7928460   2.7928460   2.6288670   2.6288670   2.6288670   2.6288670   0.0000000   0.0000000   2.7928460
 AtZNuc=  17.0000000   1.0000000   1.0000000   9.0000000   9.0000000   9.0000000   9.0000000   8.0000000   6.0000000   1.0000000

  Atom        31          32          33          34          35          36          37          38          39          40
 IAtWgt=           1           1         106          31          12          12          12          12           1           1
 AtmWgt=   1.0078250   1.0078250 105.9032000  30.9737634  12.0000000  12.0000000  12.0000000  12.0000000   1.0078250   1.0078250
 NucSpn=           1           1           0           1           0           0           0           0           1           1
 AtZEff=  -1.0000000  -1.0000000-237.3600000 -12.9400000  -3.6000000  -3.6000000  -3.6000000  -3.6000000  -1.0000000  -1.0000000
 NQMom=    0.0000000   0.0000000   0.0000000   0.0000000   0.0000000   0.0000000   0.0000000   0.0000000   0.0000000   0.0000000
 NMagM=    2.7928460   2.7928460   0.0000000   1.1316000   0.0000000   0.0000000   0.0000000   0.0000000   2.7928460   2.7928460
 AtZNuc=   1.0000000   1.0000000  46.0000000  15.0000000   6.0000000   6.0000000   6.0000000   6.0000000   1.0000000   1.0000000

  Atom        41          42          43          44          45          46          47          48          49          50
 IAtWgt=          12          12           1          12          12           1          31           1           1          12
 AtmWgt=  12.0000000  12.0000000   1.0078250  12.0000000  12.0000000   1.0078250  30.9737634   1.0078250   1.0078250  12.0000000
 NucSpn=           0           0           1           0           0           1           1           1           1           0
 AtZEff=  -3.6000000  -3.6000000  -1.0000000  -3.6000000  -3.6000000  -1.0000000 -12.9400000  -1.0000000  -1.0000000  -3.6000000
 NQMom=    0.0000000   0.0000000   0.0000000   0.0000000   0.0000000   0.0000000   0.0000000   0.0000000   0.0000000   0.0000000
 NMagM=    0.0000000   0.0000000   2.7928460   0.0000000   0.0000000   2.7928460   1.1316000   2.7928460   2.7928460   0.0000000
 AtZNuc=   6.0000000   6.0000000   1.0000000   6.0000000   6.0000000   1.0000000  15.0000000   1.0000000   1.0000000   6.0000000

  Atom        51          52          53          54          55          56          57          58          59          60
 IAtWgt=           1           1          12           1           1          12           1           1          12           1
 AtmWgt=   1.0078250   1.0078250  12.0000000   1.0078250   1.0078250  12.0000000   1.0078250   1.0078250  12.0000000   1.0078250
 NucSpn=           1           1           0           1           1           0           1           1           0           1
 AtZEff=  -1.0000000  -1.0000000  -3.6000000  -1.0000000  -1.0000000  -3.6000000  -1.0000000  -1.0000000  -3.6000000  -1.0000000
 NQMom=    0.0000000   0.0000000   0.0000000   0.0000000   0.0000000   0.0000000   0.0000000   0.0000000   0.0000000   0.0000000
 NMagM=    2.7928460   2.7928460   0.0000000   2.7928460   2.7928460   0.0000000   2.7928460   2.7928460   0.0000000   2.7928460
 AtZNuc=   1.0000000   1.0000000   6.0000000   1.0000000   1.0000000   6.0000000   1.0000000   1.0000000   6.0000000   1.0000000

  Atom        61          62          63          64          65          66          67          68          69          70
 IAtWgt=           1          12          12          12           1           1           1           1          12           1
 AtmWgt=   1.0078250  12.0000000  12.0000000  12.0000000   1.0078250   1.0078250   1.0078250   1.0078250  12.0000000   1.0078250
 NucSpn=           1           0           0           0           1           1           1           1           0           1
 AtZEff=  -1.0000000  -3.6000000  -3.6000000  -3.6000000  -1.0000000  -1.0000000  -1.0000000  -1.0000000  -3.6000000  -1.0000000
 NQMom=    0.0000000   0.0000000   0.0000000   0.0000000   0.0000000   0.0000000   0.0000000   0.0000000   0.0000000   0.0000000
 NMagM=    2.7928460   0.0000000   0.0000000   0.0000000   2.7928460   2.7928460   2.7928460   2.7928460   0.0000000   2.7928460
 AtZNuc=   1.0000000   6.0000000   6.0000000   6.0000000   1.0000000   1.0000000   1.0000000   1.0000000   6.0000000   1.0000000

  Atom        71          72          73          74          75          76          77          78          79          80
 IAtWgt=           1           1           1          12          12           1          12          12           1           1
 AtmWgt=   1.0078250   1.0078250   1.0078250  12.0000000  12.0000000   1.0078250  12.0000000  12.0000000   1.0078250   1.0078250
 NucSpn=           1           1           1           0           0           1           0           0           1           1
 AtZEff=  -1.0000000  -1.0000000  -1.0000000  -3.6000000  -3.6000000  -1.0000000  -3.6000000  -3.6000000  -1.0000000  -1.0000000
 NQMom=    0.0000000   0.0000000   0.0000000   0.0000000   0.0000000   0.0000000   0.0000000   0.0000000   0.0000000   0.0000000
 NMagM=    2.7928460   2.7928460   2.7928460   0.0000000   0.0000000   2.7928460   0.0000000   0.0000000   2.7928460   2.7928460
 AtZNuc=   1.0000000   1.0000000   1.0000000   6.0000000   6.0000000   1.0000000   6.0000000   6.0000000   1.0000000   1.0000000

  Atom        81          82          83          84          85          86          87          88          89          90
 IAtWgt=           1           1           1          12           1           1          12           1           1          12
 AtmWgt=   1.0078250   1.0078250   1.0078250  12.0000000   1.0078250   1.0078250  12.0000000   1.0078250   1.0078250  12.0000000
 NucSpn=           1           1           1           0           1           1           0           1           1           0
 AtZEff=  -1.0000000  -1.0000000  -1.0000000  -3.6000000  -1.0000000  -1.0000000  -3.6000000  -1.0000000  -1.0000000  -3.6000000
 NQMom=    0.0000000   0.0000000   0.0000000   0.0000000   0.0000000   0.0000000   0.0000000   0.0000000   0.0000000   0.0000000
 NMagM=    2.7928460   2.7928460   2.7928460   0.0000000   2.7928460   2.7928460   0.0000000   2.7928460   2.7928460   0.0000000
 AtZNuc=   1.0000000   1.0000000   1.0000000   6.0000000   1.0000000   1.0000000   6.0000000   1.0000000   1.0000000   6.0000000

  Atom        91          92          93          94          95          96          97          98          99         100
 IAtWgt=           1           1          12           1           1          12           1           1           1           1
 AtmWgt=   1.0078250   1.0078250  12.0000000   1.0078250   1.0078250  12.0000000   1.0078250   1.0078250   1.0078250   1.0078250
 NucSpn=           1           1           0           1           1           0           1           1           1           1
 AtZEff=  -1.0000000  -1.0000000  -3.6000000  -1.0000000  -1.0000000  -3.6000000  -1.0000000  -1.0000000  -1.0000000  -1.0000000
 NQMom=    0.0000000   0.0000000   0.0000000   0.0000000   0.0000000   0.0000000   0.0000000   0.0000000   0.0000000   0.0000000
 NMagM=    2.7928460   2.7928460   0.0000000   2.7928460   2.7928460   0.0000000   2.7928460   2.7928460   2.7928460   2.7928460
 AtZNuc=   1.0000000   1.0000000   6.0000000   1.0000000   1.0000000   6.0000000   1.0000000   1.0000000   1.0000000   1.0000000

  Atom       101         102         103         104         105         106         107         108         109
 IAtWgt=          12           1           1           1           1           1           1           1           1
 AtmWgt=  12.0000000   1.0078250   1.0078250   1.0078250   1.0078250   1.0078250   1.0078250   1.0078250   1.0078250
 NucSpn=           0           1           1           1           1           1           1           1           1
 AtZEff=  -3.6000000  -1.0000000  -1.0000000  -1.0000000  -1.0000000  -1.0000000  -1.0000000  -1.0000000  -1.0000000
 NQMom=    0.0000000   0.0000000   0.0000000   0.0000000   0.0000000   0.0000000   0.0000000   0.0000000   0.0000000
 NMagM=    0.0000000   2.7928460   2.7928460   2.7928460   2.7928460   2.7928460   2.7928460   2.7928460   2.7928460
 AtZNuc=   6.0000000   1.0000000   1.0000000   1.0000000   1.0000000   1.0000000   1.0000000   1.0000000   1.0000000
 Leave Link  101 at Thu Feb 29 18:58:20 2024, MaxMem=  4294967296 cpu:         3.7
 (Enter /cluster/apps/gaussian/g09/l103.exe)

 GradGradGradGradGradGradGradGradGradGradGradGradGradGradGradGradGradGrad
 Berny optimization.
 Initialization pass.
 Force constant matrix read from checkpoint file:
 "ts-dcype-v1-released.chk"
 NVar current= 734 chk= 734 common= 734.
                           ----------------------------
                           !    Initial Parameters    !
                           ! (Angstroms and Degrees)  !
 --------------------------                            --------------------------
 ! Name  Definition              Value          Derivative Info.                !
 --------------------------------------------------------------------------------
 ! R1    R(1,2)                  1.4225         D2E/DX2 =    0.3551             !
 ! R2    R(1,9)                  1.4275         D2E/DX2 =    0.2777             !
 ! R3    R(1,16)                 1.7946         D2E/DX2 =    0.0127             !
 ! R4    R(1,33)                 2.062          D2E/DX2 =    0.101              !
 ! R5    R(2,3)                  1.0918         D2E/DX2 =    0.3649             !
 ! R6    R(2,4)                  1.3844         D2E/DX2 =    0.4303             !
 ! R7    R(4,5)                  1.0928         D2E/DX2 =    0.3635             !
 ! R8    R(4,6)                  1.4099         D2E/DX2 =    0.3796             !
 ! R9    R(6,7)                  1.3906         D2E/DX2 =    0.4201             !
 ! R10   R(6,28)                 1.3586         D2E/DX2 =    0.4409             !
 ! R11   R(7,8)                  1.0891         D2E/DX2 =    0.3724             !
 ! R12   R(7,9)                  1.4044         D2E/DX2 =    0.3967             !
 ! R13   R(9,10)                 1.4399         D2E/DX2 =    0.3112             !
 ! R14   R(10,11)                1.3937         D2E/DX2 =    0.4194             !
 ! R15   R(10,15)                1.4241         D2E/DX2 =    0.2657             !
 ! R16   R(11,12)                1.3874         D2E/DX2 =    0.4346             !
 ! R17   R(11,27)                1.3342         D2E/DX2 =    0.446              !
 ! R18   R(12,13)                1.3967         D2E/DX2 =    0.4112             !
 ! R19   R(12,26)                1.3244         D2E/DX2 =    0.4774             !
 ! R20   R(13,14)                1.3932         D2E/DX2 =    0.4243             !
 ! R21   R(13,25)                1.3262         D2E/DX2 =    0.4718             !
 ! R22   R(14,15)                1.3958         D2E/DX2 =    0.4177             !
 ! R23   R(14,24)                1.3236         D2E/DX2 =    0.4721             !
 ! R24   R(15,16)                1.4061         D2E/DX2 =    0.3477             !
 ! R25   R(16,17)                1.6697         D2E/DX2 =    0.2652             !
 ! R26   R(16,33)                2.0936         D2E/DX2 =    0.1118             !
 ! R27   R(17,18)                1.4607         D2E/DX2 =    0.6321             !
 ! R28   R(17,19)                1.4508         D2E/DX2 =    0.6685             !
 ! R29   R(17,20)                1.8035         D2E/DX2 =    0.1987             !
 ! R30   R(20,21)                1.7583         D2E/DX2 =    0.2457             !
 ! R31   R(20,22)                1.0987         D2E/DX2 =    0.3513             !
 ! R32   R(20,23)                1.0995         D2E/DX2 =    0.3482             !
 ! R33   R(28,29)                1.3951         D2E/DX2 =    0.3892             !
 ! R34   R(29,30)                1.1064         D2E/DX2 =    0.3294             !
 ! R35   R(29,31)                1.1056         D2E/DX2 =    0.331              !
 ! R36   R(29,32)                1.0979         D2E/DX2 =    0.3519             !
 ! R37   R(33,34)                2.2753         D2E/DX2 =    0.116              !
 ! R38   R(33,47)                2.3638         D2E/DX2 =    0.0885             !
 ! R39   R(34,35)                1.8666         D2E/DX2 =    0.16               !
 ! R40   R(34,36)                1.8506         D2E/DX2 =    0.2008             !
 ! R41   R(34,37)                1.8454         D2E/DX2 =    0.2017             !
 ! R42   R(35,38)                1.5406         D2E/DX2 =    0.2577             !
 ! R43   R(35,39)                1.1004         D2E/DX2 =    0.3425             !
 ! R44   R(35,40)                1.1006         D2E/DX2 =    0.342              !
 ! R45   R(36,41)                1.5308         D2E/DX2 =    0.2541             !
 ! R46   R(36,42)                1.5322         D2E/DX2 =    0.2537             !
 ! R47   R(36,43)                1.1069         D2E/DX2 =    0.325              !
 ! R48   R(37,44)                1.5279         D2E/DX2 =    0.2535             !
 ! R49   R(37,45)                1.5295         D2E/DX2 =    0.2568             !
 ! R50   R(37,46)                1.1063         D2E/DX2 =    0.3288             !
 ! R51   R(38,47)                1.8699         D2E/DX2 =    0.1601             !
 ! R52   R(38,48)                1.1003         D2E/DX2 =    0.3425             !
 ! R53   R(38,49)                1.1002         D2E/DX2 =    0.3432             !
 ! R54   R(41,50)                1.5252         D2E/DX2 =    0.2624             !
 ! R55   R(41,51)                1.1022         D2E/DX2 =    0.3416             !
 ! R56   R(41,52)                1.1006         D2E/DX2 =    0.3412             !
 ! R57   R(42,53)                1.524          D2E/DX2 =    0.2628             !
 ! R58   R(42,54)                1.1056         D2E/DX2 =    0.3302             !
 ! R59   R(42,55)                1.1026         D2E/DX2 =    0.3368             !
 ! R60   R(44,56)                1.5272         D2E/DX2 =    0.2596             !
 ! R61   R(44,57)                1.1053         D2E/DX2 =    0.3309             !
 ! R62   R(44,58)                1.1015         D2E/DX2 =    0.3399             !
 ! R63   R(45,59)                1.5244         D2E/DX2 =    0.2628             !
 ! R64   R(45,60)                1.1055         D2E/DX2 =    0.3304             !
 ! R65   R(45,61)                1.1011         D2E/DX2 =    0.3412             !
 ! R66   R(47,62)                1.8515         D2E/DX2 =    0.1998             !
 ! R67   R(47,63)                1.8485         D2E/DX2 =    0.2005             !
 ! R68   R(50,64)                1.5234         D2E/DX2 =    0.2623             !
 ! R69   R(50,65)                1.1023         D2E/DX2 =    0.3377             !
 ! R70   R(50,66)                1.1056         D2E/DX2 =    0.3296             !
 ! R71   R(53,64)                1.5237         D2E/DX2 =    0.2621             !
 ! R72   R(53,67)                1.102          D2E/DX2 =    0.3385             !
 ! R73   R(53,68)                1.1054         D2E/DX2 =    0.3304             !
 ! R74   R(56,69)                1.5247         D2E/DX2 =    0.261              !
 ! R75   R(56,70)                1.1021         D2E/DX2 =    0.3384             !
 ! R76   R(56,71)                1.1048         D2E/DX2 =    0.3321             !
 ! R77   R(59,69)                1.5245         D2E/DX2 =    0.2612             !
 ! R78   R(59,72)                1.1019         D2E/DX2 =    0.3389             !
 ! R79   R(59,73)                1.1049         D2E/DX2 =    0.332              !
 ! R80   R(62,74)                1.5321         D2E/DX2 =    0.2531             !
 ! R81   R(62,75)                1.5299         D2E/DX2 =    0.2549             !
 ! R82   R(62,76)                1.1067         D2E/DX2 =    0.3255             !
 ! R83   R(63,77)                1.5297         D2E/DX2 =    0.2579             !
 ! R84   R(63,78)                1.5274         D2E/DX2 =    0.2531             !
 ! R85   R(63,79)                1.1057         D2E/DX2 =    0.3303             !
 ! R86   R(64,80)                1.1019         D2E/DX2 =    0.3386             !
 ! R87   R(64,81)                1.1035         D2E/DX2 =    0.3375             !
 ! R88   R(69,82)                1.1019         D2E/DX2 =    0.3392             !
 ! R89   R(69,83)                1.1055         D2E/DX2 =    0.3305             !
 ! R90   R(74,84)                1.5241         D2E/DX2 =    0.2625             !
 ! R91   R(74,85)                1.1056         D2E/DX2 =    0.3303             !
 ! R92   R(74,86)                1.1026         D2E/DX2 =    0.3367             !
 ! R93   R(75,87)                1.5262         D2E/DX2 =    0.2618             !
 ! R94   R(75,88)                1.1025         D2E/DX2 =    0.3413             !
 ! R95   R(75,89)                1.1009         D2E/DX2 =    0.3409             !
 ! R96   R(77,90)                1.5244         D2E/DX2 =    0.2631             !
 ! R97   R(77,91)                1.106          D2E/DX2 =    0.3288             !
 ! R98   R(77,92)                1.101          D2E/DX2 =    0.3423             !
 ! R99   R(78,93)                1.5272         D2E/DX2 =    0.2595             !
 ! R100  R(78,94)                1.1053         D2E/DX2 =    0.3306             !
 ! R101  R(78,95)                1.1019         D2E/DX2 =    0.339              !
 ! R102  R(84,96)                1.5236         D2E/DX2 =    0.2627             !
 ! R103  R(84,97)                1.1021         D2E/DX2 =    0.3382             !
 ! R104  R(84,98)                1.1054         D2E/DX2 =    0.3305             !
 ! R105  R(87,96)                1.5238         D2E/DX2 =    0.2622             !
 ! R106  R(87,99)                1.1014         D2E/DX2 =    0.3405             !
 ! R107  R(87,100)               1.1056         D2E/DX2 =    0.3297             !
 ! R108  R(90,101)               1.5244         D2E/DX2 =    0.2608             !
 ! R109  R(90,102)               1.102          D2E/DX2 =    0.3384             !
 ! R110  R(90,103)               1.1043         D2E/DX2 =    0.3338             !
 ! R111  R(93,101)               1.5246         D2E/DX2 =    0.2607             !
 ! R112  R(93,104)               1.1022         D2E/DX2 =    0.338              !
 ! R113  R(93,105)               1.1048         D2E/DX2 =    0.3323             !
 ! R114  R(96,106)               1.1018         D2E/DX2 =    0.3389             !
 ! R115  R(96,107)               1.1025         D2E/DX2 =    0.3404             !
 ! R116  R(101,108)              1.102          D2E/DX2 =    0.3388             !
 ! R117  R(101,109)              1.1057         D2E/DX2 =    0.3298             !
 ! A1    A(2,1,9)              117.0782         D2E/DX2 =    0.0606             !
 ! A2    A(2,1,33)             113.9863         D2E/DX2 =    0.06               !
 ! A3    A(9,1,33)             124.4881         D2E/DX2 =    0.0397             !
 ! A4    A(1,2,3)              119.905          D2E/DX2 =    0.0765             !
 ! A5    A(1,2,4)              119.8111         D2E/DX2 =    0.0717             !
 ! A6    A(3,2,4)              120.0817         D2E/DX2 =    0.076              !
 ! A7    A(2,4,5)              120.3909         D2E/DX2 =    0.0761             !
 ! A8    A(2,4,6)              121.8177         D2E/DX2 =    0.0798             !
 ! A9    A(5,4,6)              117.7737         D2E/DX2 =    0.0761             !
 ! A10   A(4,6,7)              119.0746         D2E/DX2 =    0.088              !
 ! A11   A(4,6,28)             116.1206         D2E/DX2 =    0.1539             !
 ! A12   A(7,6,28)             124.7615         D2E/DX2 =    0.168              !
 ! A13   A(6,7,8)              121.6382         D2E/DX2 =    0.0776             !
 ! A14   A(6,7,9)              119.6775         D2E/DX2 =    0.077              !
 ! A15   A(8,7,9)              118.6204         D2E/DX2 =    0.0801             !
 ! A16   A(1,9,7)              121.2972         D2E/DX2 =    0.0696             !
 ! A17   A(1,9,10)             111.1582         D2E/DX2 =    0.0609             !
 ! A18   A(7,9,10)             126.6063         D2E/DX2 =    0.0844             !
 ! A19   A(9,10,11)            129.3744         D2E/DX2 =    0.0989             !
 ! A20   A(9,10,15)            110.9613         D2E/DX2 =    0.0674             !
 ! A21   A(11,10,15)           119.5365         D2E/DX2 =    0.0773             !
 ! A22   A(10,11,12)           120.8026         D2E/DX2 =    0.0845             !
 ! A23   A(10,11,27)           120.5637         D2E/DX2 =    0.1343             !
 ! A24   A(12,11,27)           118.6253         D2E/DX2 =    0.134              !
 ! A25   A(11,12,13)           119.4063         D2E/DX2 =    0.0836             !
 ! A26   A(11,12,26)           120.8514         D2E/DX2 =    0.122              !
 ! A27   A(13,12,26)           119.7329         D2E/DX2 =    0.1218             !
 ! A28   A(12,13,14)           121.0757         D2E/DX2 =    0.0845             !
 ! A29   A(12,13,25)           119.4591         D2E/DX2 =    0.1251             !
 ! A30   A(14,13,25)           119.4093         D2E/DX2 =    0.1271             !
 ! A31   A(13,14,15)           119.7438         D2E/DX2 =    0.0845             !
 ! A32   A(13,14,24)           117.0736         D2E/DX2 =    0.1439             !
 ! A33   A(15,14,24)           123.1172         D2E/DX2 =    0.1326             !
 ! A34   A(10,15,14)           119.4322         D2E/DX2 =    0.0832             !
 ! A35   A(10,15,16)           112.2004         D2E/DX2 =    0.0636             !
 ! A36   A(14,15,16)           128.2704         D2E/DX2 =    0.1119             !
 ! A37   A(15,16,17)           125.7142         D2E/DX2 =    0.1087             !
 ! A38   A(15,16,33)           112.4708         D2E/DX2 =    0.0428             !
 ! A39   A(17,16,33)           117.404          D2E/DX2 =    0.0835             !
 ! A40   A(16,17,18)           105.095          D2E/DX2 =    0.0725             !
 ! A41   A(16,17,19)           112.8927         D2E/DX2 =    0.0719             !
 ! A42   A(16,17,20)           103.2724         D2E/DX2 =    0.2214             !
 ! A43   A(18,17,19)           120.4757         D2E/DX2 =    0.0431             !
 ! A44   A(18,17,20)           104.8999         D2E/DX2 =    0.0749             !
 ! A45   A(19,17,20)           108.6323         D2E/DX2 =    0.081              !
 ! A46   A(17,20,21)           112.766          D2E/DX2 =    0.1638             !
 ! A47   A(17,20,22)           105.3713         D2E/DX2 =    0.0971             !
 ! A48   A(17,20,23)           106.7862         D2E/DX2 =    0.1034             !
 ! A49   A(21,20,22)           110.3407         D2E/DX2 =    0.0613             !
 ! A50   A(21,20,23)           110.2445         D2E/DX2 =    0.0617             !
 ! A51   A(22,20,23)           111.207          D2E/DX2 =    0.0411             !
 ! A52   A(6,28,29)            117.8081         D2E/DX2 =    0.3301             !
 ! A53   A(28,29,30)           111.8736         D2E/DX2 =    0.1388             !
 ! A54   A(28,29,31)           112.1403         D2E/DX2 =    0.1386             !
 ! A55   A(28,29,32)           106.9837         D2E/DX2 =    0.1397             !
 ! A56   A(30,29,31)           108.1948         D2E/DX2 =    0.0717             !
 ! A57   A(30,29,32)           108.8725         D2E/DX2 =    0.0688             !
 ! A58   A(31,29,32)           108.6882         D2E/DX2 =    0.0693             !
 ! A59   A(1,33,16)             51.1623         D2E/DX2 =    0.0018             !
 ! A60   A(1,33,34)            104.0184         D2E/DX2 =    0.0482             !
 ! A61   A(1,33,47)            167.5965         D2E/DX2 =    0.0456             !
 ! A62   A(16,33,34)           153.5779         D2E/DX2 =    0.0454             !
 ! A63   A(16,33,47)           117.5375         D2E/DX2 =    0.0397             !
 ! A64   A(34,33,47)            87.9274         D2E/DX2 =    0.0198             !
 ! A65   A(33,34,35)           110.5089         D2E/DX2 =    0.0219             !
 ! A66   A(33,34,36)           115.2345         D2E/DX2 =    0.0302             !
 ! A67   A(33,34,37)           114.5657         D2E/DX2 =    0.0176             !
 ! A68   A(35,34,36)           104.4479         D2E/DX2 =    0.0234             !
 ! A69   A(35,34,37)           105.5622         D2E/DX2 =    0.0196             !
 ! A70   A(36,34,37)           105.6            D2E/DX2 =    0.032              !
 ! A71   A(34,35,38)           116.6702         D2E/DX2 =    0.0445             !
 ! A72   A(34,35,39)           106.8392         D2E/DX2 =    0.0295             !
 ! A73   A(34,35,40)           106.8044         D2E/DX2 =    0.0303             !
 ! A74   A(38,35,39)           110.0205         D2E/DX2 =    0.0329             !
 ! A75   A(38,35,40)           110.2421         D2E/DX2 =    0.0326             !
 ! A76   A(39,35,40)           105.6411         D2E/DX2 =    0.0132             !
 ! A77   A(34,36,41)           110.4498         D2E/DX2 =    0.0498             !
 ! A78   A(34,36,42)           108.5315         D2E/DX2 =    0.0512             !
 ! A79   A(34,36,43)           108.498          D2E/DX2 =    0.0169             !
 ! A80   A(41,36,42)           110.9063         D2E/DX2 =    0.0376             !
 ! A81   A(41,36,43)           109.353          D2E/DX2 =    0.0181             !
 ! A82   A(42,36,43)           109.053          D2E/DX2 =    0.0174             !
 ! A83   A(34,37,44)           116.0474         D2E/DX2 =    0.0523             !
 ! A84   A(34,37,45)           110.2915         D2E/DX2 =    0.0554             !
 ! A85   A(34,37,46)           102.5294         D2E/DX2 =    0.016              !
 ! A86   A(44,37,45)           111.3477         D2E/DX2 =    0.0397             !
 ! A87   A(44,37,46)           108.9215         D2E/DX2 =    0.0174             !
 ! A88   A(45,37,46)           106.9696         D2E/DX2 =    0.0169             !
 ! A89   A(35,38,47)           116.7757         D2E/DX2 =    0.0444             !
 ! A90   A(35,38,48)           110.0133         D2E/DX2 =    0.0325             !
 ! A91   A(35,38,49)           109.8725         D2E/DX2 =    0.0331             !
 ! A92   A(47,38,48)           106.6799         D2E/DX2 =    0.03               !
 ! A93   A(47,38,49)           107.2577         D2E/DX2 =    0.0293             !
 ! A94   A(48,38,49)           105.622          D2E/DX2 =    0.0131             !
 ! A95   A(36,41,50)           112.0347         D2E/DX2 =    0.0515             !
 ! A96   A(36,41,51)           108.8382         D2E/DX2 =    0.0352             !
 ! A97   A(36,41,52)           110.5583         D2E/DX2 =    0.037              !
 ! A98   A(50,41,51)           109.1974         D2E/DX2 =    0.0344             !
 ! A99   A(50,41,52)           109.582          D2E/DX2 =    0.0394             !
 ! A100  A(51,41,52)           106.4624         D2E/DX2 =    0.0143             !
 ! A101  A(36,42,53)           112.2225         D2E/DX2 =    0.0516             !
 ! A102  A(36,42,54)           108.0462         D2E/DX2 =    0.0354             !
 ! A103  A(36,42,55)           110.3847         D2E/DX2 =    0.0381             !
 ! A104  A(53,42,54)           109.4944         D2E/DX2 =    0.0337             !
 ! A105  A(53,42,55)           110.3393         D2E/DX2 =    0.0395             !
 ! A106  A(54,42,55)           106.1402         D2E/DX2 =    0.0143             !
 ! A107  A(37,44,56)           111.0477         D2E/DX2 =    0.0514             !
 ! A108  A(37,44,57)           109.4401         D2E/DX2 =    0.0335             !
 ! A109  A(37,44,58)           110.7337         D2E/DX2 =    0.0365             !
 ! A110  A(56,44,57)           109.0424         D2E/DX2 =    0.033              !
 ! A111  A(56,44,58)           110.0653         D2E/DX2 =    0.0387             !
 ! A112  A(57,44,58)           106.3863         D2E/DX2 =    0.0143             !
 ! A113  A(37,45,59)           111.2092         D2E/DX2 =    0.0519             !
 ! A114  A(37,45,60)           109.5528         D2E/DX2 =    0.0344             !
 ! A115  A(37,45,61)           109.6927         D2E/DX2 =    0.0374             !
 ! A116  A(59,45,60)           109.1879         D2E/DX2 =    0.0335             !
 ! A117  A(59,45,61)           110.8464         D2E/DX2 =    0.0381             !
 ! A118  A(60,45,61)           106.2202         D2E/DX2 =    0.0144             !
 ! A119  A(33,47,38)           108.0779         D2E/DX2 =    0.0213             !
 ! A120  A(33,47,62)           117.0454         D2E/DX2 =    0.0296             !
 ! A121  A(33,47,63)           116.2566         D2E/DX2 =    0.0169             !
 ! A122  A(38,47,62)           103.4342         D2E/DX2 =    0.0228             !
 ! A123  A(38,47,63)           105.2799         D2E/DX2 =    0.0197             !
 ! A124  A(62,47,63)           105.4221         D2E/DX2 =    0.0319             !
 ! A125  A(41,50,64)           111.7992         D2E/DX2 =    0.0547             !
 ! A126  A(41,50,65)           109.2866         D2E/DX2 =    0.0377             !
 ! A127  A(41,50,66)           109.4306         D2E/DX2 =    0.0347             !
 ! A128  A(64,50,65)           110.4879         D2E/DX2 =    0.038              !
 ! A129  A(64,50,66)           109.2945         D2E/DX2 =    0.0333             !
 ! A130  A(65,50,66)           106.3906         D2E/DX2 =    0.0144             !
 ! A131  A(42,53,64)           111.1442         D2E/DX2 =    0.0542             !
 ! A132  A(42,53,67)           109.6372         D2E/DX2 =    0.0375             !
 ! A133  A(42,53,68)           109.474          D2E/DX2 =    0.0341             !
 ! A134  A(64,53,67)           110.6089         D2E/DX2 =    0.0378             !
 ! A135  A(64,53,68)           109.4293         D2E/DX2 =    0.0328             !
 ! A136  A(67,53,68)           106.4294         D2E/DX2 =    0.0145             !
 ! A137  A(44,56,69)           111.6664         D2E/DX2 =    0.0544             !
 ! A138  A(44,56,70)           110.0195         D2E/DX2 =    0.0379             !
 ! A139  A(44,56,71)           108.8505         D2E/DX2 =    0.0343             !
 ! A140  A(69,56,70)           110.5464         D2E/DX2 =    0.0384             !
 ! A141  A(69,56,71)           109.2305         D2E/DX2 =    0.0329             !
 ! A142  A(70,56,71)           106.368          D2E/DX2 =    0.0144             !
 ! A143  A(45,59,69)           111.5158         D2E/DX2 =    0.0545             !
 ! A144  A(45,59,72)           110.006          D2E/DX2 =    0.038              !
 ! A145  A(45,59,73)           108.7763         D2E/DX2 =    0.0341             !
 ! A146  A(69,59,72)           110.6006         D2E/DX2 =    0.0382             !
 ! A147  A(69,59,73)           109.3771         D2E/DX2 =    0.0328             !
 ! A148  A(72,59,73)           106.4144         D2E/DX2 =    0.0145             !
 ! A149  A(47,62,74)           108.6207         D2E/DX2 =    0.0491             !
 ! A150  A(47,62,75)           110.3564         D2E/DX2 =    0.0492             !
 ! A151  A(47,62,76)           108.8492         D2E/DX2 =    0.0172             !
 ! A152  A(74,62,75)           110.7137         D2E/DX2 =    0.0376             !
 ! A153  A(74,62,76)           109.0048         D2E/DX2 =    0.0172             !
 ! A154  A(75,62,76)           109.259          D2E/DX2 =    0.0175             !
 ! A155  A(47,63,77)           109.7442         D2E/DX2 =    0.0559             !
 ! A156  A(47,63,78)           116.1741         D2E/DX2 =    0.0529             !
 ! A157  A(47,63,79)           102.7114         D2E/DX2 =    0.0159             !
 ! A158  A(77,63,78)           111.863          D2E/DX2 =    0.0399             !
 ! A159  A(77,63,79)           106.7509         D2E/DX2 =    0.0168             !
 ! A160  A(78,63,79)           108.8056         D2E/DX2 =    0.0175             !
 ! A161  A(50,64,53)           110.8539         D2E/DX2 =    0.0539             !
 ! A162  A(50,64,80)           110.4233         D2E/DX2 =    0.0383             !
 ! A163  A(50,64,81)           109.2699         D2E/DX2 =    0.0339             !
 ! A164  A(53,64,80)           110.4076         D2E/DX2 =    0.0383             !
 ! A165  A(53,64,81)           109.3449         D2E/DX2 =    0.034              !
 ! A166  A(80,64,81)           106.4306         D2E/DX2 =    0.0146             !
 ! A167  A(56,69,59)           111.3527         D2E/DX2 =    0.0545             !
 ! A168  A(56,69,82)           110.3435         D2E/DX2 =    0.0386             !
 ! A169  A(56,69,83)           109.122          D2E/DX2 =    0.0335             !
 ! A170  A(59,69,82)           110.4816         D2E/DX2 =    0.0386             !
 ! A171  A(59,69,83)           109.1094         D2E/DX2 =    0.0334             !
 ! A172  A(82,69,83)           106.2853         D2E/DX2 =    0.0145             !
 ! A173  A(62,74,84)           112.1279         D2E/DX2 =    0.0513             !
 ! A174  A(62,74,85)           108.2778         D2E/DX2 =    0.0348             !
 ! A175  A(62,74,86)           110.4412         D2E/DX2 =    0.0379             !
 ! A176  A(84,74,85)           109.4531         D2E/DX2 =    0.0337             !
 ! A177  A(84,74,86)           110.2811         D2E/DX2 =    0.0397             !
 ! A178  A(85,74,86)           106.0518         D2E/DX2 =    0.0142             !
 ! A179  A(62,75,87)           111.9896         D2E/DX2 =    0.0515             !
 ! A180  A(62,75,88)           109.0629         D2E/DX2 =    0.0349             !
 ! A181  A(62,75,89)           110.4536         D2E/DX2 =    0.0368             !
 ! A182  A(87,75,88)           109.5385         D2E/DX2 =    0.0344             !
 ! A183  A(87,75,89)           109.3894         D2E/DX2 =    0.0393             !
 ! A184  A(88,75,89)           106.2383         D2E/DX2 =    0.0144             !
 ! A185  A(63,77,90)           111.354          D2E/DX2 =    0.0524             !
 ! A186  A(63,77,91)           109.4924         D2E/DX2 =    0.0346             !
 ! A187  A(63,77,92)           109.0581         D2E/DX2 =    0.0379             !
 ! A188  A(90,77,91)           109.2533         D2E/DX2 =    0.0334             !
 ! A189  A(90,77,92)           110.4194         D2E/DX2 =    0.0382             !
 ! A190  A(91,77,92)           107.1673         D2E/DX2 =    0.0144             !
 ! A191  A(63,78,93)           111.1819         D2E/DX2 =    0.0514             !
 ! A192  A(63,78,94)           109.5034         D2E/DX2 =    0.0335             !
 ! A193  A(63,78,95)           110.6258         D2E/DX2 =    0.0364             !
 ! A194  A(93,78,94)           108.9075         D2E/DX2 =    0.0331             !
 ! A195  A(93,78,95)           110.1181         D2E/DX2 =    0.0386             !
 ! A196  A(94,78,95)           106.3709         D2E/DX2 =    0.0143             !
 ! A197  A(74,84,96)           111.2225         D2E/DX2 =    0.0542             !
 ! A198  A(74,84,97)           109.7453         D2E/DX2 =    0.0375             !
 ! A199  A(74,84,98)           109.294          D2E/DX2 =    0.0341             !
 ! A200  A(96,84,97)           110.6127         D2E/DX2 =    0.0378             !
 ! A201  A(96,84,98)           109.4233         D2E/DX2 =    0.0327             !
 ! A202  A(97,84,98)           106.4178         D2E/DX2 =    0.0145             !
 ! A203  A(75,87,96)           112.261          D2E/DX2 =    0.0554             !
 ! A204  A(75,87,99)           109.3699         D2E/DX2 =    0.0381             !
 ! A205  A(75,87,100)          109.0661         D2E/DX2 =    0.035              !
 ! A206  A(96,87,99)           110.353          D2E/DX2 =    0.0385             !
 ! A207  A(96,87,100)          109.1267         D2E/DX2 =    0.0336             !
 ! A208  A(99,87,100)          106.4887         D2E/DX2 =    0.0144             !
 ! A209  A(77,90,101)          111.7181         D2E/DX2 =    0.0546             !
 ! A210  A(77,90,102)          109.93           D2E/DX2 =    0.0381             !
 ! A211  A(77,90,103)          108.6074         D2E/DX2 =    0.0342             !
 ! A212  A(101,90,102)         110.6085         D2E/DX2 =    0.0382             !
 ! A213  A(101,90,103)         109.5043         D2E/DX2 =    0.0328             !
 ! A214  A(102,90,103)         106.3046         D2E/DX2 =    0.0145             !
 ! A215  A(78,93,101)          111.5798         D2E/DX2 =    0.0542             !
 ! A216  A(78,93,104)          110.012          D2E/DX2 =    0.0378             !
 ! A217  A(78,93,105)          108.9129         D2E/DX2 =    0.0341             !
 ! A218  A(101,93,104)         110.6088         D2E/DX2 =    0.0383             !
 ! A219  A(101,93,105)         109.1944         D2E/DX2 =    0.0328             !
 ! A220  A(104,93,105)         106.3782         D2E/DX2 =    0.0144             !
 ! A221  A(84,96,87)           111.0998         D2E/DX2 =    0.0541             !
 ! A222  A(84,96,106)          110.3712         D2E/DX2 =    0.0383             !
 ! A223  A(84,96,107)          109.5934         D2E/DX2 =    0.0337             !
 ! A224  A(87,96,106)          110.2677         D2E/DX2 =    0.0384             !
 ! A225  A(87,96,107)          109.228          D2E/DX2 =    0.0337             !
 ! A226  A(106,96,107)         106.1511         D2E/DX2 =    0.0146             !
 ! A227  A(90,101,93)          111.2712         D2E/DX2 =    0.0543             !
 ! A228  A(90,101,108)         110.4935         D2E/DX2 =    0.0384             !
 ! A229  A(90,101,109)         109.2326         D2E/DX2 =    0.0333             !
 ! A230  A(93,101,108)         110.3208         D2E/DX2 =    0.0386             !
 ! A231  A(93,101,109)         109.0974         D2E/DX2 =    0.0335             !
 ! A232  A(108,101,109)        106.2846         D2E/DX2 =    0.0145             !
 ! D1    D(9,1,2,3)           -173.6771         D2E/DX2 =    0.0071             !
 ! D2    D(9,1,2,4)             11.4853         D2E/DX2 =    0.0073             !
 ! D3    D(33,1,2,3)            28.8756         D2E/DX2 =    0.009              !
 ! D4    D(33,1,2,4)          -145.9619         D2E/DX2 =    0.0083             !
 ! D5    D(2,1,9,7)            -12.1521         D2E/DX2 =    0.0059             !
 ! D6    D(2,1,9,10)           157.4579         D2E/DX2 =    0.0106             !
 ! D7    D(33,1,9,7)           142.6888         D2E/DX2 =    0.0066             !
 ! D8    D(33,1,9,10)          -47.7011         D2E/DX2 =    0.0094             !
 ! D9    D(2,1,33,16)         -119.5125         D2E/DX2 =    0.0184             !
 ! D10   D(2,1,33,34)           70.7524         D2E/DX2 =    0.014              !
 ! D11   D(2,1,33,47)          -93.3366         D2E/DX2 =    0.0076             !
 ! D12   D(9,1,33,16)           84.9635         D2E/DX2 =    0.0201             !
 ! D13   D(9,1,33,34)          -84.7716         D2E/DX2 =    0.015              !
 ! D14   D(9,1,33,47)          111.1394         D2E/DX2 =    0.008              !
 ! D15   D(1,2,4,5)            175.0745         D2E/DX2 =    0.0087             !
 ! D16   D(1,2,4,6)             -3.3589         D2E/DX2 =    0.0087             !
 ! D17   D(3,2,4,5)              0.2462         D2E/DX2 =    0.0089             !
 ! D18   D(3,2,4,6)           -178.1872         D2E/DX2 =    0.0088             !
 ! D19   D(2,4,6,7)             -4.7257         D2E/DX2 =    0.008              !
 ! D20   D(2,4,6,28)           177.5519         D2E/DX2 =    0.008              !
 ! D21   D(5,4,6,7)            176.8017         D2E/DX2 =    0.0073             !
 ! D22   D(5,4,6,28)            -0.9208         D2E/DX2 =    0.0088             !
 ! D23   D(4,6,7,8)           -172.9084         D2E/DX2 =    0.0084             !
 ! D24   D(4,6,7,9)              4.1449         D2E/DX2 =    0.0078             !
 ! D25   D(28,6,7,8)             4.6022         D2E/DX2 =    0.0092             !
 ! D26   D(28,6,7,9)          -178.3444         D2E/DX2 =    0.0095             !
 ! D27   D(4,6,28,29)         -179.9872         D2E/DX2 =    0.0088             !
 ! D28   D(7,6,28,29)            2.4359         D2E/DX2 =    0.0081             !
 ! D29   D(6,7,9,1)              4.4182         D2E/DX2 =    0.0077             !
 ! D30   D(6,7,9,10)          -163.4878         D2E/DX2 =    0.0112             !
 ! D31   D(8,7,9,1)           -178.4396         D2E/DX2 =    0.0072             !
 ! D32   D(8,7,9,10)            13.6543         D2E/DX2 =    0.0095             !
 ! D33   D(1,9,10,11)          165.5925         D2E/DX2 =    0.0111             !
 ! D34   D(1,9,10,15)          -18.6084         D2E/DX2 =    0.0113             !
 ! D35   D(7,9,10,11)          -25.4752         D2E/DX2 =    0.0075             !
 ! D36   D(7,9,10,15)          150.3239         D2E/DX2 =    0.0094             !
 ! D37   D(9,10,11,12)         175.8558         D2E/DX2 =    0.009              !
 ! D38   D(9,10,11,27)          -5.2135         D2E/DX2 =    0.0105             !
 ! D39   D(15,10,11,12)          0.3653         D2E/DX2 =    0.0067             !
 ! D40   D(15,10,11,27)        179.2959         D2E/DX2 =    0.0103             !
 ! D41   D(9,10,15,14)        -176.1414         D2E/DX2 =    0.0085             !
 ! D42   D(9,10,15,16)           7.147          D2E/DX2 =    0.0093             !
 ! D43   D(11,10,15,14)          0.1269         D2E/DX2 =    0.0065             !
 ! D44   D(11,10,15,16)       -176.5847         D2E/DX2 =    0.0073             !
 ! D45   D(10,11,12,13)         -0.5056         D2E/DX2 =    0.0065             !
 ! D46   D(10,11,12,26)        178.3739         D2E/DX2 =    0.0096             !
 ! D47   D(27,11,12,13)       -179.4566         D2E/DX2 =    0.0103             !
 ! D48   D(27,11,12,26)         -0.5771         D2E/DX2 =    0.0118             !
 ! D49   D(11,12,13,14)          0.1545         D2E/DX2 =    0.0063             !
 ! D50   D(11,12,13,25)        177.4201         D2E/DX2 =    0.0096             !
 ! D51   D(26,12,13,14)       -178.7377         D2E/DX2 =    0.009              !
 ! D52   D(26,12,13,25)         -1.4721         D2E/DX2 =    0.011              !
 ! D53   D(12,13,14,15)          0.3348         D2E/DX2 =    0.0068             !
 ! D54   D(12,13,14,24)        177.4861         D2E/DX2 =    0.0097             !
 ! D55   D(25,13,14,15)       -176.9322         D2E/DX2 =    0.0096             !
 ! D56   D(25,13,14,24)          0.2191         D2E/DX2 =    0.0121             !
 ! D57   D(13,14,15,10)         -0.4704         D2E/DX2 =    0.0068             !
 ! D58   D(13,14,15,16)        175.6508         D2E/DX2 =    0.0087             !
 ! D59   D(24,14,15,10)       -177.4418         D2E/DX2 =    0.0131             !
 ! D60   D(24,14,15,16)         -1.3206         D2E/DX2 =    0.0108             !
 ! D61   D(10,15,16,17)       -133.7388         D2E/DX2 =    0.0093             !
 ! D62   D(10,15,16,33)         70.6435         D2E/DX2 =    0.0111             !
 ! D63   D(14,15,16,17)         49.9096         D2E/DX2 =    0.0084             !
 ! D64   D(14,15,16,33)       -105.7082         D2E/DX2 =    0.0127             !
 ! D65   D(15,16,17,18)       -175.3974         D2E/DX2 =    0.0373             !
 ! D66   D(15,16,17,19)        -42.232          D2E/DX2 =    0.0289             !
 ! D67   D(15,16,17,20)         74.893          D2E/DX2 =    0.0234             !
 ! D68   D(33,16,17,18)        -20.8458         D2E/DX2 =    0.0334             !
 ! D69   D(33,16,17,19)        112.3197         D2E/DX2 =    0.0324             !
 ! D70   D(33,16,17,20)       -130.5554         D2E/DX2 =    0.0245             !
 ! D71   D(15,16,33,1)         -92.7662         D2E/DX2 =    0.0246             !
 ! D72   D(15,16,33,34)        -69.9026         D2E/DX2 =    0.0079             !
 ! D73   D(15,16,33,47)         93.368          D2E/DX2 =    0.0185             !
 ! D74   D(17,16,33,1)         109.416          D2E/DX2 =    0.0254             !
 ! D75   D(17,16,33,34)        132.2796         D2E/DX2 =    0.012              !
 ! D76   D(17,16,33,47)        -64.4498         D2E/DX2 =    0.0203             !
 ! D77   D(16,17,20,21)        -65.4189         D2E/DX2 =    0.025              !
 ! D78   D(16,17,20,22)        174.1618         D2E/DX2 =    0.0228             !
 ! D79   D(16,17,20,23)         55.8166         D2E/DX2 =    0.0228             !
 ! D80   D(18,17,20,21)       -175.2739         D2E/DX2 =    0.0271             !
 ! D81   D(18,17,20,22)         64.3069         D2E/DX2 =    0.0262             !
 ! D82   D(18,17,20,23)        -54.0383         D2E/DX2 =    0.027              !
 ! D83   D(19,17,20,21)         54.6684         D2E/DX2 =    0.0254             !
 ! D84   D(19,17,20,22)        -65.7509         D2E/DX2 =    0.0229             !
 ! D85   D(19,17,20,23)        175.9039         D2E/DX2 =    0.0234             !
 ! D86   D(6,28,29,30)          58.5808         D2E/DX2 =    0.0294             !
 ! D87   D(6,28,29,31)         -63.1954         D2E/DX2 =    0.0298             !
 ! D88   D(6,28,29,32)         177.7287         D2E/DX2 =    0.0261             !
 ! D89   D(1,33,34,35)        -177.8081         D2E/DX2 =    0.0055             !
 ! D90   D(1,33,34,36)          64.1069         D2E/DX2 =    0.0151             !
 ! D91   D(1,33,34,37)         -58.7343         D2E/DX2 =    0.0141             !
 ! D92   D(16,33,34,35)        164.0162         D2E/DX2 =    0.0067             !
 ! D93   D(16,33,34,36)         45.9312         D2E/DX2 =    0.0112             !
 ! D94   D(16,33,34,37)        -76.91           D2E/DX2 =    0.0118             !
 ! D95   D(47,33,34,35)         -1.1861         D2E/DX2 =    0.003              !
 ! D96   D(47,33,34,36)       -119.271          D2E/DX2 =    0.0115             !
 ! D97   D(47,33,34,37)        117.8877         D2E/DX2 =    0.0116             !
 ! D98   D(1,33,47,38)         166.3            D2E/DX2 =    0.0055             !
 ! D99   D(1,33,47,62)         -77.5293         D2E/DX2 =    0.0109             !
 ! D100  D(1,33,47,63)          48.2571         D2E/DX2 =    0.0085             !
 ! D101  D(16,33,47,38)       -170.9005         D2E/DX2 =    0.0054             !
 ! D102  D(16,33,47,62)        -54.7299         D2E/DX2 =    0.0127             !
 ! D103  D(16,33,47,63)         71.0565         D2E/DX2 =    0.012              !
 ! D104  D(34,33,47,38)          1.7355         D2E/DX2 =    0.0033             !
 ! D105  D(34,33,47,62)        117.9061         D2E/DX2 =    0.0138             !
 ! D106  D(34,33,47,63)       -116.3075         D2E/DX2 =    0.0125             !
 ! D107  D(33,34,35,38)          0.239          D2E/DX2 =    0.0041             !
 ! D108  D(33,34,35,39)        123.7646         D2E/DX2 =    0.0122             !
 ! D109  D(33,34,35,40)       -123.5507         D2E/DX2 =    0.0124             !
 ! D110  D(36,34,35,38)        124.7396         D2E/DX2 =    0.0194             !
 ! D111  D(36,34,35,39)       -111.7349         D2E/DX2 =    0.0187             !
 ! D112  D(36,34,35,40)          0.9499         D2E/DX2 =    0.0178             !
 ! D113  D(37,34,35,38)       -124.1588         D2E/DX2 =    0.014              !
 ! D114  D(37,34,35,39)         -0.6333         D2E/DX2 =    0.0143             !
 ! D115  D(37,34,35,40)        112.0514         D2E/DX2 =    0.015              !
 ! D116  D(33,34,36,41)        -76.0666         D2E/DX2 =    0.0119             !
 ! D117  D(33,34,36,42)         45.7136         D2E/DX2 =    0.0108             !
 ! D118  D(33,34,36,43)        164.0857         D2E/DX2 =    0.0089             !
 ! D119  D(35,34,36,41)        162.5077         D2E/DX2 =    0.0143             !
 ! D120  D(35,34,36,42)        -75.7121         D2E/DX2 =    0.0128             !
 ! D121  D(35,34,36,43)         42.6601         D2E/DX2 =    0.0107             !
 ! D122  D(37,34,36,41)         51.4335         D2E/DX2 =    0.0127             !
 ! D123  D(37,34,36,42)        173.2136         D2E/DX2 =    0.012              !
 ! D124  D(37,34,36,43)        -68.4142         D2E/DX2 =    0.0094             !
 ! D125  D(33,34,37,44)       -179.4761         D2E/DX2 =    0.0114             !
 ! D126  D(33,34,37,45)        -51.6908         D2E/DX2 =    0.0116             !
 ! D127  D(33,34,37,46)         61.9459         D2E/DX2 =    0.0101             !
 ! D128  D(35,34,37,44)        -57.6607         D2E/DX2 =    0.0121             !
 ! D129  D(35,34,37,45)         70.1246         D2E/DX2 =    0.0124             !
 ! D130  D(35,34,37,46)       -176.2387         D2E/DX2 =    0.0112             !
 ! D131  D(36,34,37,44)         52.6222         D2E/DX2 =    0.0149             !
 ! D132  D(36,34,37,45)       -179.5925         D2E/DX2 =    0.0147             !
 ! D133  D(36,34,37,46)        -65.9558         D2E/DX2 =    0.0132             !
 ! D134  D(34,35,38,47)          1.2661         D2E/DX2 =    0.0044             !
 ! D135  D(34,35,38,48)       -120.4662         D2E/DX2 =    0.0114             !
 ! D136  D(34,35,38,49)        123.6596         D2E/DX2 =    0.0111             !
 ! D137  D(39,35,38,47)       -120.6078         D2E/DX2 =    0.0114             !
 ! D138  D(39,35,38,48)        117.6599         D2E/DX2 =    0.0133             !
 ! D139  D(39,35,38,49)          1.7857         D2E/DX2 =    0.012              !
 ! D140  D(40,35,38,47)        123.275          D2E/DX2 =    0.0116             !
 ! D141  D(40,35,38,48)          1.5427         D2E/DX2 =    0.0122             !
 ! D142  D(40,35,38,49)       -114.3315         D2E/DX2 =    0.0131             !
 ! D143  D(34,36,41,50)        173.1727         D2E/DX2 =    0.0202             !
 ! D144  D(34,36,41,51)         52.3159         D2E/DX2 =    0.0174             !
 ! D145  D(34,36,41,52)        -64.2832         D2E/DX2 =    0.0172             !
 ! D146  D(42,36,41,50)         52.8052         D2E/DX2 =    0.0158             !
 ! D147  D(42,36,41,51)        -68.0516         D2E/DX2 =    0.0181             !
 ! D148  D(42,36,41,52)        175.3493         D2E/DX2 =    0.0166             !
 ! D149  D(43,36,41,50)        -67.4959         D2E/DX2 =    0.0127             !
 ! D150  D(43,36,41,51)        171.6473         D2E/DX2 =    0.0133             !
 ! D151  D(43,36,41,52)         55.0482         D2E/DX2 =    0.0119             !
 ! D152  D(34,36,42,53)       -175.0534         D2E/DX2 =    0.0196             !
 ! D153  D(34,36,42,54)        -54.2394         D2E/DX2 =    0.017              !
 ! D154  D(34,36,42,55)         61.417          D2E/DX2 =    0.0163             !
 ! D155  D(41,36,42,53)        -53.5529         D2E/DX2 =    0.0158             !
 ! D156  D(41,36,42,54)         67.2611         D2E/DX2 =    0.0178             !
 ! D157  D(41,36,42,55)       -177.0825         D2E/DX2 =    0.0164             !
 ! D158  D(43,36,42,53)         66.9264         D2E/DX2 =    0.0128             !
 ! D159  D(43,36,42,54)       -172.2596         D2E/DX2 =    0.0132             !
 ! D160  D(43,36,42,55)        -56.6032         D2E/DX2 =    0.012              !
 ! D161  D(34,37,44,56)       -177.5938         D2E/DX2 =    0.0169             !
 ! D162  D(34,37,44,57)         61.9722         D2E/DX2 =    0.0148             !
 ! D163  D(34,37,44,58)        -54.9955         D2E/DX2 =    0.0148             !
 ! D164  D(45,37,44,56)         55.1439         D2E/DX2 =    0.0157             !
 ! D165  D(45,37,44,57)        -65.2901         D2E/DX2 =    0.017              !
 ! D166  D(45,37,44,58)        177.7422         D2E/DX2 =    0.0158             !
 ! D167  D(46,37,44,56)        -62.5821         D2E/DX2 =    0.0131             !
 ! D168  D(46,37,44,57)        176.9838         D2E/DX2 =    0.0133             !
 ! D169  D(46,37,44,58)         60.0161         D2E/DX2 =    0.0124             !
 ! D170  D(34,37,45,59)        174.3316         D2E/DX2 =    0.0172             !
 ! D171  D(34,37,45,60)        -64.8752         D2E/DX2 =    0.0155             !
 ! D172  D(34,37,45,61)         51.3532         D2E/DX2 =    0.0153             !
 ! D173  D(44,37,45,59)        -55.34           D2E/DX2 =    0.0155             !
 ! D174  D(44,37,45,60)         65.4533         D2E/DX2 =    0.0168             !
 ! D175  D(44,37,45,61)       -178.3184         D2E/DX2 =    0.0158             !
 ! D176  D(46,37,45,59)         63.5596         D2E/DX2 =    0.0132             !
 ! D177  D(46,37,45,60)       -175.6472         D2E/DX2 =    0.0135             !
 ! D178  D(46,37,45,61)        -59.4188         D2E/DX2 =    0.0127             !
 ! D179  D(35,38,47,33)         -2.1071         D2E/DX2 =    0.0048             !
 ! D180  D(35,38,47,62)       -126.8388         D2E/DX2 =    0.0179             !
 ! D181  D(35,38,47,63)        122.7544         D2E/DX2 =    0.0142             !
 ! D182  D(48,38,47,33)        121.3543         D2E/DX2 =    0.0127             !
 ! D183  D(48,38,47,62)         -3.3774         D2E/DX2 =    0.0176             !
 ! D184  D(48,38,47,63)       -113.7842         D2E/DX2 =    0.0151             !
 ! D185  D(49,38,47,33)       -125.8496         D2E/DX2 =    0.0125             !
 ! D186  D(49,38,47,62)        109.4187         D2E/DX2 =    0.0182             !
 ! D187  D(49,38,47,63)         -0.9881         D2E/DX2 =    0.0143             !
 ! D188  D(36,41,50,64)        -54.4878         D2E/DX2 =    0.0139             !
 ! D189  D(36,41,50,65)       -177.1263         D2E/DX2 =    0.0153             !
 ! D190  D(36,41,50,66)         66.7406         D2E/DX2 =    0.0159             !
 ! D191  D(51,41,50,64)         66.1609         D2E/DX2 =    0.0167             !
 ! D192  D(51,41,50,65)        -56.4776         D2E/DX2 =    0.0151             !
 ! D193  D(51,41,50,66)       -172.6107         D2E/DX2 =    0.0165             !
 ! D194  D(52,41,50,64)       -177.585          D2E/DX2 =    0.0157             !
 ! D195  D(52,41,50,65)         59.7765         D2E/DX2 =    0.0144             !
 ! D196  D(52,41,50,66)        -56.3566         D2E/DX2 =    0.0151             !
 ! D197  D(36,42,53,64)         55.4861         D2E/DX2 =    0.0143             !
 ! D198  D(36,42,53,67)        178.0812         D2E/DX2 =    0.0154             !
 ! D199  D(36,42,53,68)        -65.515          D2E/DX2 =    0.016              !
 ! D200  D(54,42,53,64)        -64.4888         D2E/DX2 =    0.0169             !
 ! D201  D(54,42,53,67)         58.1063         D2E/DX2 =    0.0152             !
 ! D202  D(54,42,53,68)        174.5101         D2E/DX2 =    0.0166             !
 ! D203  D(55,42,53,64)        179.0411         D2E/DX2 =    0.0159             !
 ! D204  D(55,42,53,67)        -58.3638         D2E/DX2 =    0.0144             !
 ! D205  D(55,42,53,68)         58.04           D2E/DX2 =    0.0151             !
 ! D206  D(37,44,56,69)        -54.9822         D2E/DX2 =    0.0142             !
 ! D207  D(37,44,56,70)       -178.1217         D2E/DX2 =    0.0154             !
 ! D208  D(37,44,56,71)         65.6901         D2E/DX2 =    0.0161             !
 ! D209  D(57,44,56,69)         65.687          D2E/DX2 =    0.0164             !
 ! D210  D(57,44,56,70)        -57.4525         D2E/DX2 =    0.0149             !
 ! D211  D(57,44,56,71)       -173.6408         D2E/DX2 =    0.0163             !
 ! D212  D(58,44,56,69)       -177.9663         D2E/DX2 =    0.0158             !
 ! D213  D(58,44,56,70)         58.8942         D2E/DX2 =    0.0143             !
 ! D214  D(58,44,56,71)        -57.294          D2E/DX2 =    0.0151             !
 ! D215  D(37,45,59,69)         55.1395         D2E/DX2 =    0.0144             !
 ! D216  D(37,45,59,72)        178.2346         D2E/DX2 =    0.0155             !
 ! D217  D(37,45,59,73)        -65.5715         D2E/DX2 =    0.0162             !
 ! D218  D(60,45,59,69)        -65.8681         D2E/DX2 =    0.0166             !
 ! D219  D(60,45,59,72)         57.227          D2E/DX2 =    0.0149             !
 ! D220  D(60,45,59,73)        173.4209         D2E/DX2 =    0.0164             !
 ! D221  D(61,45,59,69)        177.4528         D2E/DX2 =    0.0159             !
 ! D222  D(61,45,59,72)        -59.4522         D2E/DX2 =    0.0144             !
 ! D223  D(61,45,59,73)         56.7418         D2E/DX2 =    0.0152             !
 ! D224  D(33,47,62,74)        -44.4042         D2E/DX2 =    0.0108             !
 ! D225  D(33,47,62,75)         77.1372         D2E/DX2 =    0.0109             !
 ! D226  D(33,47,62,76)       -162.9678         D2E/DX2 =    0.008              !
 ! D227  D(38,47,62,74)         74.2915         D2E/DX2 =    0.0144             !
 ! D228  D(38,47,62,75)       -164.1671         D2E/DX2 =    0.0146             !
 ! D229  D(38,47,62,76)        -44.2721         D2E/DX2 =    0.011              !
 ! D230  D(63,47,62,74)       -175.4069         D2E/DX2 =    0.0122             !
 ! D231  D(63,47,62,75)        -53.8655         D2E/DX2 =    0.0122             !
 ! D232  D(63,47,62,76)         66.0294         D2E/DX2 =    0.0089             !
 ! D233  D(33,47,63,77)         47.1203         D2E/DX2 =    0.0105             !
 ! D234  D(33,47,63,78)        175.237          D2E/DX2 =    0.0104             !
 ! D235  D(33,47,63,79)        -66.1374         D2E/DX2 =    0.0093             !
 ! D236  D(38,47,63,77)        -72.4474         D2E/DX2 =    0.0121             !
 ! D237  D(38,47,63,78)         55.6692         D2E/DX2 =    0.0118             !
 ! D238  D(38,47,63,79)        174.2948         D2E/DX2 =    0.011              !
 ! D239  D(62,47,63,77)        178.5749         D2E/DX2 =    0.0141             !
 ! D240  D(62,47,63,78)        -53.3085         D2E/DX2 =    0.014              !
 ! D241  D(62,47,63,79)         65.3171         D2E/DX2 =    0.0127             !
 ! D242  D(41,50,64,53)         55.6555         D2E/DX2 =    0.0154             !
 ! D243  D(41,50,64,80)        178.3404         D2E/DX2 =    0.0156             !
 ! D244  D(41,50,64,81)        -64.9212         D2E/DX2 =    0.0169             !
 ! D245  D(65,50,64,53)        177.6065         D2E/DX2 =    0.0157             !
 ! D246  D(65,50,64,80)        -59.7087         D2E/DX2 =    0.0142             !
 ! D247  D(65,50,64,81)         57.0298         D2E/DX2 =    0.0152             !
 ! D248  D(66,50,64,53)        -65.6516         D2E/DX2 =    0.0167             !
 ! D249  D(66,50,64,80)         57.0332         D2E/DX2 =    0.015              !
 ! D250  D(66,50,64,81)        173.7717         D2E/DX2 =    0.0167             !
 ! D251  D(42,53,64,50)        -55.9321         D2E/DX2 =    0.0156             !
 ! D252  D(42,53,64,80)       -178.626          D2E/DX2 =    0.0157             !
 ! D253  D(42,53,64,81)         64.6001         D2E/DX2 =    0.0168             !
 ! D254  D(67,53,64,50)       -177.9643         D2E/DX2 =    0.0158             !
 ! D255  D(67,53,64,80)         59.3417         D2E/DX2 =    0.0143             !
 ! D256  D(67,53,64,81)        -57.4321         D2E/DX2 =    0.0152             !
 ! D257  D(68,53,64,50)         65.0953         D2E/DX2 =    0.0167             !
 ! D258  D(68,53,64,80)        -57.5987         D2E/DX2 =    0.015              !
 ! D259  D(68,53,64,81)       -174.3725         D2E/DX2 =    0.0165             !
 ! D260  D(44,56,69,59)         54.8579         D2E/DX2 =    0.0153             !
 ! D261  D(44,56,69,82)        177.9264         D2E/DX2 =    0.0156             !
 ! D262  D(44,56,69,83)        -65.6444         D2E/DX2 =    0.0165             !
 ! D263  D(70,56,69,59)        177.6975         D2E/DX2 =    0.0157             !
 ! D264  D(70,56,69,82)        -59.2341         D2E/DX2 =    0.0142             !
 ! D265  D(70,56,69,83)         57.1952         D2E/DX2 =    0.015              !
 ! D266  D(71,56,69,59)        -65.5922         D2E/DX2 =    0.0167             !
 ! D267  D(71,56,69,82)         57.4762         D2E/DX2 =    0.015              !
 ! D268  D(71,56,69,83)        173.9055         D2E/DX2 =    0.0164             !
 ! D269  D(45,59,69,56)        -54.8797         D2E/DX2 =    0.0154             !
 ! D270  D(45,59,69,82)       -177.8691         D2E/DX2 =    0.0156             !
 ! D271  D(45,59,69,83)         65.6299         D2E/DX2 =    0.0166             !
 ! D272  D(72,59,69,56)       -177.635          D2E/DX2 =    0.0157             !
 ! D273  D(72,59,69,82)         59.3756         D2E/DX2 =    0.0142             !
 ! D274  D(72,59,69,83)        -57.1254         D2E/DX2 =    0.015              !
 ! D275  D(73,59,69,56)         65.479          D2E/DX2 =    0.0167             !
 ! D276  D(73,59,69,82)        -57.5104         D2E/DX2 =    0.015              !
 ! D277  D(73,59,69,83)       -174.0113         D2E/DX2 =    0.0164             !
 ! D278  D(47,62,74,84)        175.8028         D2E/DX2 =    0.0217             !
 ! D279  D(47,62,74,85)         54.9442         D2E/DX2 =    0.0175             !
 ! D280  D(47,62,74,86)        -60.7692         D2E/DX2 =    0.0169             !
 ! D281  D(75,62,74,84)         54.4804         D2E/DX2 =    0.0157             !
 ! D282  D(75,62,74,85)        -66.3782         D2E/DX2 =    0.0175             !
 ! D283  D(75,62,74,86)        177.9084         D2E/DX2 =    0.0163             !
 ! D284  D(76,62,74,84)        -65.7317         D2E/DX2 =    0.0131             !
 ! D285  D(76,62,74,85)        173.4097         D2E/DX2 =    0.0132             !
 ! D286  D(76,62,74,86)         57.6963         D2E/DX2 =    0.012              !
 ! D287  D(47,62,75,87)       -173.4403         D2E/DX2 =    0.02               !
 ! D288  D(47,62,75,88)        -52.0311         D2E/DX2 =    0.0169             !
 ! D289  D(47,62,75,89)         64.3695         D2E/DX2 =    0.0171             !
 ! D290  D(74,62,75,87)        -53.1481         D2E/DX2 =    0.0157             !
 ! D291  D(74,62,75,88)         68.2611         D2E/DX2 =    0.0179             !
 ! D292  D(74,62,75,89)       -175.3383         D2E/DX2 =    0.0166             !
 ! D293  D(76,62,75,87)         66.9121         D2E/DX2 =    0.0129             !
 ! D294  D(76,62,75,88)       -171.6787         D2E/DX2 =    0.0133             !
 ! D295  D(76,62,75,89)        -55.2781         D2E/DX2 =    0.012              !
 ! D296  D(47,63,77,90)       -175.4654         D2E/DX2 =    0.0172             !
 ! D297  D(47,63,77,91)         63.606          D2E/DX2 =    0.0157             !
 ! D298  D(47,63,77,92)        -53.3656         D2E/DX2 =    0.0162             !
 ! D299  D(78,63,77,90)         54.0693         D2E/DX2 =    0.0153             !
 ! D300  D(78,63,77,91)        -66.8593         D2E/DX2 =    0.0168             !
 ! D301  D(78,63,77,92)        176.169          D2E/DX2 =    0.016              !
 ! D302  D(79,63,77,90)        -64.8451         D2E/DX2 =    0.0131             !
 ! D303  D(79,63,77,91)        174.2263         D2E/DX2 =    0.0135             !
 ! D304  D(79,63,77,92)         57.2547         D2E/DX2 =    0.0128             !
 ! D305  D(47,63,78,93)        178.6521         D2E/DX2 =    0.0166             !
 ! D306  D(47,63,78,94)        -60.955          D2E/DX2 =    0.0146             !
 ! D307  D(47,63,78,95)         55.9686         D2E/DX2 =    0.0146             !
 ! D308  D(77,63,78,93)        -54.2768         D2E/DX2 =    0.0155             !
 ! D309  D(77,63,78,94)         66.116          D2E/DX2 =    0.0169             !
 ! D310  D(77,63,78,95)       -176.9604         D2E/DX2 =    0.0158             !
 ! D311  D(79,63,78,93)         63.4139         D2E/DX2 =    0.013              !
 ! D312  D(79,63,78,94)       -176.1933         D2E/DX2 =    0.0132             !
 ! D313  D(79,63,78,95)        -59.2696         D2E/DX2 =    0.0123             !
 ! D314  D(62,74,84,96)        -55.7945         D2E/DX2 =    0.0141             !
 ! D315  D(62,74,84,97)       -178.5219         D2E/DX2 =    0.0155             !
 ! D316  D(62,74,84,98)         65.1301         D2E/DX2 =    0.0159             !
 ! D317  D(85,74,84,96)         64.3828         D2E/DX2 =    0.0167             !
 ! D318  D(85,74,84,97)        -58.3445         D2E/DX2 =    0.0151             !
 ! D319  D(85,74,84,98)       -174.6925         D2E/DX2 =    0.0164             !
 ! D320  D(86,74,84,96)       -179.3123         D2E/DX2 =    0.0159             !
 ! D321  D(86,74,84,97)         57.9603         D2E/DX2 =    0.0144             !
 ! D322  D(86,74,84,98)        -58.3877         D2E/DX2 =    0.0151             !
 ! D323  D(62,75,87,96)         53.8284         D2E/DX2 =    0.0136             !
 ! D324  D(62,75,87,99)        176.6667         D2E/DX2 =    0.0151             !
 ! D325  D(62,75,87,100)       -67.2406         D2E/DX2 =    0.0158             !
 ! D326  D(88,75,87,96)        -67.3065         D2E/DX2 =    0.0165             !
 ! D327  D(88,75,87,99)         55.5318         D2E/DX2 =    0.015              !
 ! D328  D(88,75,87,100)       171.6245         D2E/DX2 =    0.0165             !
 ! D329  D(89,75,87,96)        176.6242         D2E/DX2 =    0.0157             !
 ! D330  D(89,75,87,99)        -60.5375         D2E/DX2 =    0.0144             !
 ! D331  D(89,75,87,100)        55.5552         D2E/DX2 =    0.0151             !
 ! D332  D(63,77,90,101)       -54.3735         D2E/DX2 =    0.0143             !
 ! D333  D(63,77,90,102)      -177.5647         D2E/DX2 =    0.0154             !
 ! D334  D(63,77,90,103)        66.5114         D2E/DX2 =    0.0163             !
 ! D335  D(91,77,90,101)        66.695          D2E/DX2 =    0.0166             !
 ! D336  D(91,77,90,102)       -56.4962         D2E/DX2 =    0.0149             !
 ! D337  D(91,77,90,103)      -172.4201         D2E/DX2 =    0.0164             !
 ! D338  D(92,77,90,101)      -175.6826         D2E/DX2 =    0.0161             !
 ! D339  D(92,77,90,102)        61.1262         D2E/DX2 =    0.0146             !
 ! D340  D(92,77,90,103)       -54.7976         D2E/DX2 =    0.0153             !
 ! D341  D(63,78,93,101)        54.8771         D2E/DX2 =    0.0142             !
 ! D342  D(63,78,93,104)       178.0311         D2E/DX2 =    0.0153             !
 ! D343  D(63,78,93,105)       -65.7368         D2E/DX2 =    0.016              !
 ! D344  D(94,78,93,101)       -65.8672         D2E/DX2 =    0.0164             !
 ! D345  D(94,78,93,104)        57.2868         D2E/DX2 =    0.0149             !
 ! D346  D(94,78,93,105)       173.519          D2E/DX2 =    0.0163             !
 ! D347  D(95,78,93,101)       177.8528         D2E/DX2 =    0.0157             !
 ! D348  D(95,78,93,104)       -58.9932         D2E/DX2 =    0.0143             !
 ! D349  D(95,78,93,105)        57.239          D2E/DX2 =    0.015              !
 ! D350  D(74,84,96,87)         55.0549         D2E/DX2 =    0.0155             !
 ! D351  D(74,84,96,106)       177.6945         D2E/DX2 =    0.0157             !
 ! D352  D(74,84,96,107)       -65.7449         D2E/DX2 =    0.0166             !
 ! D353  D(97,84,96,87)        177.2814         D2E/DX2 =    0.0157             !
[...]
 0.00165947,0.00041034,0.00029125,0.00031509,-0.00011383,0.00038067,-0.
 00014324,0.00000343,0.00000081,-0.00000020,-0.00000184,-0.00000201,0.0
 0000220,0.00000005,0.00000043,0.00000120,0.,-0.00000273,0.00000286,-0.
 00000033,0.00000159,0.00000282,-0.04367456,-0.05667562,-0.02846237,-0.
 00070491,0.00069538,-0.00008616,-0.00039944,0.00078870,0.00052363,-0.0
 0026076,-0.00004597,-0.00025267,0.00056201,0.00041644,0.00002090,-0.00
 000137,-0.00000058,-0.00000138,-0.00000160,0.00000022,-0.00000039,0.04
 269494,0.05826893,0.00001446,-0.00012064,-0.00000715,-0.00002130,0.000
 02635,0.00002433,-0.00000244,-0.00000606,0.00000015,0.00001079,0.00000
 824,0.00000416,-0.00000297,-0.00000216,0.00000220,0.00002293,-0.000005
 33,-0.00002223,0.00000817,0.00000908,0.00000639,-0.00000123,-0.0000001
 2,-0.00000095,-0.00002893,0.00002873,-0.00002147,-0.00001802,-0.000013
 91,0.00001690,0.00002010,0.00000354,-0.00000595,0.00000761,-0.00000721
 ,0.00002134,-0.00000257,-0.00000320,0.00000979,0.00001450,-0.00000128,
 0.00000341,0.00001487,0.00000410,-0.00000491,0.00007482,0.00004391,0.0
 0002534,-0.00005972,-0.00003983,-0.00011559,0.00002603,-0.00001490,0.0
 0004613,0.00003513,0.00003022,0.00002548,0.00000771,-0.00000082,0.0000
 1185,0.00000170,0.00000169,0.00000138,-0.00000335,0.00000348,0.0000007
 3,-0.00000388,-0.00000381,-0.00000084,-0.00001764,0.00001129,0.0000009
 8,0.00000503,0.00000571,-0.00001373,-0.00001040,0.00000582,-0.00001770
 ,-0.00001819,-0.00000068,-0.00000169,-0.00005106,0.00001013,0.00001704
 ,0.00001866,-0.00000882,0.00001131,-0.00000078,0.00000034,-0.00000306,
 -0.00000023,0.00000219,-0.00000357,-0.00000277,0.00000018,0.00000125,-
 0.00007397,0.00000340,-0.00000261,0.00005004,0.00000130,-0.00003214,0.
 00000876,0.00000392,0.00001784,-0.00001144,0.00000839,0.00001524,-0.00
 000819,0.00000542,-0.00000424,-0.00005629,0.00000367,-0.00002218,-0.00
 001766,-0.00000426,-0.00000197,-0.00000210,0.00000378,-0.00000147,-0.0
 0000161,-0.00000061,-0.00000917,0.00000486,-0.00000240,-0.00000169,0.0
 0000115,-0.00000212,-0.00000102,0.00000596,-0.00000125,0.00000922,-0.0
 0000126,-0.00000681,0.00000516,0.00000033,-0.00000135,0.00000542,0.000
 16043,-0.00006946,0.00005084,0.00001678,0.00003502,0.00003139,0.000013
 94,-0.00000706,-0.00001704,0.,0.00000237,0.00000399,0.00000051,0.00000
 004,-0.00000021,-0.00000128,-0.00000050,0.00000202,0.00000182,0.000002
 01,0.00000431,0.00000120,-0.00000243,-0.00000138,-0.00000061,0.0000051
 2,0.00000433,-0.00000188,-0.00000069,-0.00000474,-0.00000113,0.0000025
 7,-0.00000186,0.00000170,0.00000173,0.00000006,-0.00000011,0.00000382,
 -0.00000126,-0.00000260,-0.00000161,-0.00000725,-0.00000680,0.00000237
 ,-0.00000252,0.00000427,-0.00002432,-0.00005258,0.00055417,-0.00026821
 ,0.00016452,0.00000004,-0.00000050,-0.00000129,-0.00000252,0.00000189,
 0.00000032,-0.00000040,-0.00000209,-0.00000129,0.00000059,0.00000056,-
 0.00000013,-0.00000121,-0.00000173,-0.00000019,-0.00000218,0.00000126,
 0.00000068,-0.00000059,-0.00000241,0.00000256,0.00000063,0.00000052,0.
 00000161,0.00000136,-0.00000017,0.00000617,0.00000034,-0.00000084,0.00
 000030,-0.00000343,0.00004389,0.00003360,0.00001170,0.00000417,0.00002
 878,-0.00001085,0.00006654,0.00010205,0.00153594,-0.00125672,0.0002496
 5,0.00366969,0.00066718,-0.00608021,-0.00007036,0.00006691,0.00001342,
 -0.00000323,0.00000032,-0.00000092,0.00000090,-0.00000064,0.00000075,-
 0.00000021,-0.00000018,0.00000291,0.00000051,-0.00000130,-0.00000200,-
 0.00000763,-0.00000401,0.00000747,-0.00002003,0.00000401,-0.00002140,-
 0.00000202,-0.00000605,-0.00000317,-0.00001717,-0.00001010,0.00001305,
 -0.00000873,0.00000869,-0.00001396,-0.00003034,-0.00005298,-0.00000791
 ,0.00763570,0.00227588,0.00443364,-0.00024177,-0.00009259,-0.00011657,
 0.00039403,-0.00014303,0.00039180,-0.02698406,-0.00639886,-0.01643921,
 0.00021435,-0.00008294,0.00020200,-0.00166749,-0.00015555,-0.00118720,
 0.00001081,0.00000007,-0.00000771,-0.00000468,0.00000280,-0.00000914,0
 .00000418,0.00000131,0.00000386,0.00000151,0.00001078,-0.00000736,-0.0
 0000345,-0.00000254,0.00000723,-0.11918361,-0.02710496,-0.12498662,-0.
 00006057,0.00050199,0.00048702,-0.00041042,0.00020508,0.00016444,0.000
 11827,-0.00044544,0.00095211,-0.00011222,0.00045799,0.00106535,-0.0000
 0304,0.00000147,-0.00001167,-0.00000428,-0.00000016,0.00000185,0.12763
 911,0.03040650,0.13665590,-0.00000764,0.00007658,0.00000225,0.00001177
 ,-0.00001607,-0.00001516,0.00000024,0.00000793,0.00000298,-0.00000597,
 -0.00000685,-0.00000096,0.00000182,0.00000165,-0.00000111,-0.00001517,
 0.00000324,0.00001356,-0.00000418,-0.00000534,-0.00000471,0.00000064,0
 .00000006,0.00000067,0.00001446,-0.00001480,0.00001091,0.00000934,0.00
 000691,-0.00000872,-0.00001300,-0.00000157,0.00000186,-0.00000604,0.00
 000362,-0.00001131,0.00000143,0.00000069,-0.00000183,-0.00001272,0.000
 00060,-0.00000265,-0.00000941,-0.00000638,0.00000592,-0.00005243,-0.00
 002058,-0.00002740,0.00006211,-0.00001535,0.00012013,-0.00005422,0.000
 00309,-0.00005730,-0.00001889,-0.00000780,-0.00002683,-0.00000150,-0.0
 0000170,-0.00000840,-0.00000297,0.00000304,-0.00000324,0.00000150,-0.0
 0000420,0.00000016,0.00000319,0.00000297,0.00000039,0.00001350,-0.0000
 0513,-0.00000189,-0.00000100,-0.00000208,0.00000528,0.00000627,-0.0000
 0320,0.00000994,0.00001163,0.00000064,0.00000089,0.00003184,-0.0000060
 6,-0.00001052,-0.00001164,0.00000528,-0.00000681,0.00000045,-0.0000002
 2,0.00000190,0.00000021,-0.00000127,0.00000217,0.00000179,-0.00000018,
 -0.00000080,0.00004515,-0.00001476,-0.00000204,-0.00003137,-0.00000163
 ,0.00000372,-0.00000600,-0.00000262,0.00000644,0.00000323,-0.00000474,
 -0.00000487,0.00000661,-0.00000476,-0.00000970,0.00002799,-0.00000319,
 -0.00000405,0.00000794,0.00000095,-0.00000247,0.00000630,-0.00000244,0
 .00000300,0.00000137,0.00000116,0.00000533,0.00000098,0.00000103,0.000
 00072,0.00000034,0.00000144,0.00000068,-0.00000004,-0.00000278,0.00000
 076,-0.00000291,0.00001309,0.00000868,0.00000529,0.00000085,0.00000068
 ,-0.00006351,0.00001686,-0.00006029,-0.00000262,-0.00000966,-0.0000021
 3,-0.00001367,-0.00001632,0.00000189,-0.00000095,-0.00000193,-0.000002
 30,-0.00000049,0.00000034,-0.00000004,-0.00000029,-0.00000015,-0.00000
 070,-0.00000194,-0.00000155,-0.00000165,-0.00000093,0.00000190,0.00000
 008,-0.00000003,-0.00000237,-0.00000229,-0.00000011,0.00000137,0.00000
 200,-0.00000081,-0.00000205,0.00000007,0.00000215,0.00000133,0.0000000
 6,0.00000045,-0.00000398,0.00000725,-0.00000289,-0.00001774,-0.0000061
 7,-0.00000590,0.00000543,0.00000285,0.00001954,-0.00000476,0.00001118,
 -0.00013288,0.00001406,0.00000506,0.00000035,0.00000046,0.00000071,0.0
 0000169,-0.00000129,-0.00000008,0.00000040,0.00000158,0.00000091,0.000
 00018,-0.00000065,0.00000052,0.00000118,0.00000141,0.00000018,0.000001
 33,-0.00000458,-0.00000254,0.00000269,0.00000313,-0.00000073,-0.000000
 01,-0.00000072,-0.00000086,-0.00000327,0.00000148,0.00000516,0.0000070
 1,0.00000129,-0.00000318,-0.00001189,-0.00000163,0.00000119,-0.0000263
 2,0.00000205,-0.00000560,-0.00000018,-0.00000726,-0.00001573,0.0019665
 9,0.00070281,-0.00004786,0.00042199,0.00085843,-0.00065697,-0.00011595
 ,-0.00010201,0.00011457,0.00000199,-0.00000037,0.00000086,-0.00000063,
 0.00000051,-0.00000038,0.00000436,0.00000202,-0.00000444,-0.00000183,-
 0.00000143,0.00000313,0.00000769,-0.00000190,-0.00000128,0.00000224,-0
 .00000107,0.00000183,0.00000341,0.00000291,0.00000062,0.00001216,0.000
 00110,-0.00000467,0.00000338,0.00000087,0.00000349,0.00001335,0.000007
 62,0.00000274,0.00656101,0.02322536,-0.00579727,-0.00027023,-0.0004847
 6,0.00019088,0.00012322,-0.00017866,0.00027963,-0.00382998,-0.00756082
 ,0.00227064,0.00043761,0.00007467,0.00005617,-0.00004560,0.00009011,-0
 .00001033,-0.00000719,0.00000083,0.00000318,0.00000299,-0.00000042,0.0
 0000485,-0.00000263,0.00000027,-0.00000057,-0.00000212,0.00000057,0.00
 000070,-0.00000060,-0.00000116,-0.00000236,-0.07393566,-0.07679349,0.0
 1817588,0.00091988,-0.00067920,-0.00011890,-0.00302216,0.00362136,0.00
 078867,-0.00001973,-0.00018141,-0.00005541,0.00063357,0.00029441,0.002
 02080,0.00000197,-0.00000064,0.00000545,0.00000264,0.00000038,-0.00000
 046,-0.00747727,-0.02273287,0.00694080,0.07782297,-0.00006548,-0.00003
 678,0.00002607,0.00000830,0.00001264,-0.00001140,-0.00000927,-0.000014
 04,0.00000143,-0.00000217,0.00000904,0.00000408,-0.00000009,-0.0000033
 1,-0.00000202,-0.00001740,0.00000111,0.00001109,0.00000117,0.00000532,
 0.00000065,-0.00000006,-0.00000181,0.00000048,0.00001079,0.00000221,0.
 00000698,0.00000230,-0.00000287,0.00000956,-0.00002125,-0.00000066,-0.
 00000120,-0.00000899,0.00000374,-0.00001343,0.00000232,0.00000210,-0.0
 0000602,-0.00003050,-0.00000391,-0.00000297,0.00000256,0.00001651,-0.0
 0002361,0.00010430,0.00002014,0.00005753,-0.00026018,0.00005788,-0.000
 18567,0.00013759,-0.00005097,0.00009778,0.00009623,-0.00000117,0.00002
 654,0.00000896,0.00001711,0.00000407,0.00001425,-0.00001884,0.00000973
 ,-0.00000559,0.00000805,0.00000469,-0.00000310,-0.00001027,0.00000067,
 0.00002639,0.00000017,0.00000367,0.00000100,-0.00000125,0.00000451,0.0
 0001049,-0.00000456,0.00001530,0.00002277,0.00000231,0.00000197,0.0000
 3018,-0.00000300,-0.00000886,-0.00001125,0.00000064,-0.00000704,0.0000
 0047,0.00000030,0.00000297,0.00000065,0.00000040,0.00000145,0.00000183
 ,-0.00000069,-0.00000093,0.00003356,0.00004491,-0.00000703,-0.00003258
 ,-0.00009314,0.00003190,0.00000530,0.00004687,-0.00003633,0.00000718,0
 .00002103,-0.00000919,0.00000169,0.00003894,0.00001101,0.00001952,0.00
 000127,0.00006880,0.00001447,0.00001182,0.00000937,-0.00001028,-0.0000
 0476,-0.00000336,-0.00000409,-0.00000342,0.00000172,-0.00000732,-0.000
 00430,-0.00000128,0.00000798,0.00000341,0.00000562,0.00000204,-0.00000
 980,-0.00001877,0.00003194,-0.00004693,-0.00002278,-0.00000970,-0.0000
 0096,-0.00000186,-0.00012034,-0.00008317,0.00001678,0.00000394,0.00000
 733,0.00001712,0.00003668,-0.00001081,-0.00001669,0.00000136,0.,-0.000
 00071,-0.00000084,-0.00000203,-0.00000012,0.00000359,0.00000110,-0.000
 00338,0.00000115,0.00000138,-0.00000252,-0.00000075,0.00000302,-0.0000
 0039,-0.00000068,-0.00000205,0.00000023,0.00000460,0.00000796,0.000011
 04,-0.00000012,0.00000451,0.00000590,-0.00000524,-0.00000058,-0.000002
 77,0.00001878,0.00000819,0.00001881,-0.00000025,0.00001503,0.00002620,
 -0.00000963,0.00001069,0.00000636,0.00006761,0.00002506,0.00002339,0.0
 0027881,0.00007973,0.00005246,-0.00000205,-0.00000263,-0.00000021,-0.0
 0000114,-0.00000097,-0.00000023,0.00000081,0.00000233,0.00000099,-0.00
 000133,-0.00000017,-0.00000226,0.00000145,0.00000197,0.00000098,0.0000
 1346,-0.00001263,-0.00001474,0.00000058,0.00000013,-0.00000652,-0.0000
 0678,0.00000337,-0.00000266,-0.00000053,-0.00001570,-0.00002410,-0.000
 01812,0.00000556,-0.00000073,-0.00002232,-0.00000685,0.00001973,-0.000
 01878,0.00000330,-0.00001882,-0.00000858,0.00000072,-0.00000341,-0.001
 66448,0.00093571,-0.00006410,0.00012582,0.00031171,-0.00055358,-0.0001
 3779,0.00000396,-0.00022145,0.00000054,0.00000034,-0.00000049,-0.00000
 016,0.00000111,-0.00000001,0.00000101,0.00000253,-0.00000256,-0.000001
 45,0.00001673,0.00000795,0.00001258,-0.00000084,0.00000231,-0.00000258
 ,-0.00000072,-0.00000070,0.00000553,0.00000682,0.00000282,0.00001065,0
 .00000364,-0.00000280,-0.00000671,0.00000167,-0.00000450,0.00001684,-0
 .00000504,-0.00000350,-0.00699411,-0.02149631,0.00455458,0.00096033,0.
 00052602,0.00043016,0.00008980,0.00035495,-0.00032678,-0.00023933,-0.0
 0030175,-0.00057984,0.00047833,0.00009733,0.00048229,0.00011812,0.0002
 4268,0.00002516,-0.00000530,0.00000015,0.00000011,0.00000253,-0.000000
 58,0.00000562,-0.00000294,0.00000150,0.00000027,0.00000056,0.00000315,
 -0.00000397,-0.00000149,0.00000032,0.00000115,-0.07573016,-0.26318202,
 0.05716367,-0.00004954,0.00072206,-0.00036904,0.00390980,-0.00189932,-
 0.00113672,-0.00004766,0.00080982,0.00040602,-0.00003861,0.00133298,-0
 .00012128,0.00000197,0.00000002,0.00000360,0.00000059,0.00000072,-0.00
 000067,-0.00101573,-0.00492421,0.00137789,0.07988081,0.28638061,-0.000
 00940,0.00001607,0.00000887,0.00000516,-0.00000281,-0.00000948,-0.0000
 0157,0.00000092,0.00000157,-0.00000720,-0.00000007,0.00000226,0.000000
 04,0.00000062,-0.00000023,-0.00000603,-0.00000060,0.00001108,0.0000032
 4,-0.00000134,-0.00000484,0.00000048,0.00000023,0.00000007,0.00000080,
 -0.00000451,0.00000807,0.00000804,0.00000242,-0.00000477,-0.00000447,-
 0.00000065,0.00000071,-0.00000174,0.00000297,-0.00000876,0.00000565,0.
 00000342,-0.00001271,0.00002390,-0.00000098,-0.00000438,-0.00000771,0.
 00000480,-0.00000703,0.00000834,-0.00000940,0.00001799,-0.00002232,0.0
 0005866,-0.00008199,0.00003783,-0.00004668,0.00004333,-0.00000950,-0.0
 0001540,0.00002375,-0.00000322,0.00000152,0.00000394,0.00000503,-0.000
 00906,0.00000384,-0.00000032,0.00000148,0.00000044,-0.00000064,-0.0000
 0002,0.00000117,-0.00001827,0.00000183,0.00000424,-0.00000899,-0.00000
 369,0.00001426,0.00000388,-0.00000291,0.00000888,0.00000290,-0.0000006
 7,0.00000143,0.00001422,-0.00000308,-0.00000398,-0.00000573,0.00000279
 ,-0.00000331,0.00000008,-0.00000008,0.00000083,0.,-0.00000071,0.000000
 99,0.00000089,-0.00000006,-0.00000044,0.00001015,-0.00001807,-0.000006
 86,-0.00002115,0.00002236,0.00000437,-0.00000585,-0.00002435,0.0000177
 6,0.00000175,-0.00000654,-0.00000469,0.00000751,-0.00000795,-0.0000122
 6,0.00000448,0.00000180,-0.00001475,-0.00000432,-0.00000218,-0.0000025
 3,0.00001285,0.00000177,0.00000310,0.00000188,0.00000043,0.00000496,0.
 00000228,0.00000047,-0.00000011,-0.00000179,-0.00000015,-0.00000024,-0
 .00000388,0.00000181,0.00000526,-0.00001334,0.00001403,0.00001207,0.00
 000485,-0.00000010,0.00000011,-0.00005201,0.00008532,-0.00002239,-0.00
 000068,-0.00000413,-0.00001455,-0.00003616,-0.00001225,0.00001071,-0.0
 0000038,-0.00000089,-0.00000201,0.00000011,0.00000032,-0.00000009,-0.0
 0000070,-0.00000004,0.00000022,-0.00000123,-0.00000040,-0.00000053,-0.
 00000009,-0.00000006,-0.00000076,0.00000059,0.00000069,-0.00000176,-0.
 00000011,-0.00000217,0.00000266,0.00000077,-0.00000289,-0.00000104,0.0
 0000209,0.00000100,-0.00000094,0.00001422,-0.00000438,0.00001587,-0.00
 000105,-0.00001721,-0.00000159,-0.00000218,0.00000540,0.00000027,-0.00
 001172,0.00000588,0.00000308,-0.00011076,-0.00012627,-0.00017809,0.000
 00038,0.00000028,0.00000025,0.00000130,-0.00000081,0.00000027,0.000000
 08,0.00000056,0.00000050,0.00000062,-0.00000075,0.00000115,0.00000028,
 0.00000040,-0.00000011,-0.00000419,0.00000258,-0.00000504,-0.00000046,
 0.00000116,-0.00000089,0.00000019,-0.00000096,-0.00000145,-0.00000328,
 -0.00000107,-0.00000313,0.00000081,0.00000029,-0.00000637,-0.00000740,
 -0.00001046,0.00000609,0.00004873,0.00000306,0.00004140,0.00000750,-0.
 00000449,0.00000179,0.00004201,0.00062592,-0.00008724,0.00090147,0.001
 13153,0.00191687,0.00012657,-0.00018026,0.00000318,0.00000117,-0.00000
 015,0.00000071,-0.00000032,0.00000012,-0.00000039,0.00000446,0.0000012
 4,-0.00000341,0.00000074,-0.00000090,0.00000378,0.00000288,0.00000293,
 -0.00000236,0.00000257,0.00000040,0.00000007,-0.00000652,-0.00000388,-
 0.00000455,-0.00001226,-0.00000791,-0.00000528,-0.00001049,-0.00000165
 ,-0.00000403,0.00000342,0.00000110,-0.00000496,-0.00243344,-0.00841382
 ,0.00122069,-0.00007844,0.00020505,0.00013763,-0.00009457,-0.00006562,
 -0.00006493,0.01114767,0.03042931,-0.00965416,-0.00070806,-0.00073878,
 -0.00021868,0.00016390,-0.00048272,0.00032232,0.00000626,0.00000212,0.
 00000072,-0.00000223,-0.00000274,0.00000186,0.00000036,0.00000042,0.00
 000061,0.00000106,-0.00000852,0.00000655,0.00000110,0.00000652,0.00000
 575,0.01757226,0.05617557,-0.06115409,-0.00051987,-0.00021776,0.000360
 78,0.00162991,-0.00125451,0.00058364,-0.00006715,-0.00034244,0.0011956
 7,0.00125851,0.00018056,-0.00638867,-0.00000295,-0.00000176,-0.0000008
 3,-0.00000337,-0.00000005,-0.00000130,-0.00468566,-0.01570818,0.003909
 12,-0.02409507,-0.06122719,0.06805942\\0.00000024,0.00000042,-0.000001
 69,-0.00000046,-0.00000016,-0.00000035,0.00000007,0.00000034,-0.000000
 03,-0.00000047,0.00000079,-0.00000031,-0.00000008,0.00000062,-0.000000
 20,0.00000034,0.00000050,-0.00000013,0.00000051,0.00000022,-0.00000092
 ,0.00000025,0.00000007,-0.00000041,-0.00000022,0.00000027,-0.00000048,
 0.00000051,0.00000042,-0.00000038,-0.00000021,-0.00000062,-0.00000056,
 0.00000036,-0.00000041,-0.00000028,0.00000015,-0.00000046,-0.00000054,
 0.00000026,-0.00000062,-0.00000041,0.00000016,0.00000053,-0.00000063,-
 0.00000088,0.00000020,0.00000028,0.00000035,0.00000035,-0.00000102,0.,
 0.00000020,-0.00000004,-0.00000021,0.00000008,0.00000024,0.00000003,0.
 00000030,-0.00000068,0.00000014,0.00000001,-0.00000085,0.00000013,0.00
 000033,-0.00000063,-0.00000002,0.00000020,-0.00000051,0.00000013,-0.00
 000098,-0.00000106,0.00000024,-0.00000052,-0.00000054,0.00000023,-0.00
 000053,-0.00000071,0.00000043,-0.00000077,-0.00000062,-0.00000018,0.00
 000030,-0.00000051,0.00000007,0.00000051,-0.00000069,0.00000002,0.0000
 0038,-0.00000042,0.00000007,0.00000032,-0.00000069,0.00000005,0.000000
 57,-0.00000063,0.00000166,-0.00000094,0.00000215,-0.00000331,-0.000001
 07,-0.00000126,-0.00000028,0.00000471,0.00000276,-0.00000062,0.0000005
 3,0.00000051,0.00000070,0.,0.00000033,0.00000207,-0.00000640,-0.000001
 83,0.00000015,0.00000082,0.00000107,0.00000034,0.00000106,0.00000053,-
 0.00000015,-0.00000008,-0.00000063,-0.00000008,0.00000030,0.00000062,0
 .00000015,0.,0.00000016,0.00000031,-0.00000004,0.00000036,-0.00000024,
 0.00000070,0.00000052,0.00000009,0.00000047,0.00000012,-0.00000095,0.0
 0000167,-0.00000011,0.00000120,-0.00000088,0.00000015,-0.00000098,0.00
 000046,0.00000008,-0.00000029,0.00000026,0.00000017,-0.00000025,0.0000
 0002,0.,-0.00000047,0.00000026,-0.00000005,0.00000022,-0.00000032,-0.0
 0000015,0.00000030,-0.00000022,-0.00000045,-0.00000009,-0.00000116,0.0
 0000029,-0.00000036,0.00000053,0.00000034,0.00000017,0.00000034,0.0000
 0035,-0.00000011,0.00000038,0.00000030,-0.00000021,0.00000055,0.000000
 26,0.00000018,0.00000063,0.00000082,-0.00000003,0.00000044,0.00000009,
 -0.00000013,0.00000060,0.00000052,0.00000019,-0.00000033,-0.00000030,-
 0.00000008,-0.00000027,-0.00000017,0.,0.00000006,-0.00000019,0.0000000
 1,0.00000008,-0.00000002,0.00000008,-0.00000036,0.00000002,-0.00000001
 ,-0.00000027,0.00000018,-0.00000023,0.00000064,0.00000048,-0.00000027,
 0.00000058,0.00000054,-0.00000022,0.00000068,0.00000036,-0.00000018,0.
 00000066,0.00000035,-0.00000019,0.00000068,0.00000024,-0.00000019,-0.0
 0000199,0.00000011,0.00000020,-0.00000038,-0.00000011,-0.00000017,-0.0
 0000053,0.00000007,-0.00000021,0.00000009,0.00000049,0.00000007,-0.000
 00044,0.00000051,0.,-0.00000008,-0.00000016,0.00000013,-0.00000020,-0.
 00000013,0.00000041,0.00000017,-0.00000002,-0.00000031,0.00000082,0.00
 000050,-0.00000028,0.00000054,0.00000060,0.00000031,-0.00000041,0.0000
 0026,-0.00000028,-0.00000054,0.00000035,0.00000090,-0.00000062,0.00000
 059,0.00000026,-0.00000041,-0.00000001,-0.00000024,0.,-0.00000019,-0.0
 0000007,-0.00000013,-0.00000005,-0.00000010,0.00000018,0.00000007,-0.0
 0000026,0.00000027,0.00000054,-0.00000006,0.00000017,0.00000010,-0.000
 00018,-0.00000011,0.00000007,-0.00000023,-0.00000027,0.00000031,-0.000
 00015,-0.00000049,0.00000069,0.00000007,-0.00000082,-0.00000025,0.0000
 0018,-0.00000075,0.00000006,0.00000006,-0.00000082,0.00000022,0.000000
 25,-0.00000072,-0.00000018,0.00000008,-0.00000078,0.00000011,-0.000000
 05,0.00000025,0.00000041,-0.00000016,0.00000039,0.00000022,-0.00000001
 ,0.00000027,0.00000012,-0.00000012,-0.00000010,0.00000051,-0.00000004,
 -0.00000007,0.00000026,0.00000025,-0.00000086,-0.00000005,0.00000018,-
 0.00000064,-0.00000010,-0.00000013,0.00000020,0.00000041,-0.00000021,0
 .00000020,0.00000052\\\@


 HE WHO LAUGHS LAST PROBABLY DIDN'T GET THE JOKE.
 Job cpu time:       2 days 12 hours  7 minutes 39.1 seconds.
 File lengths (MBytes):  RWF=  12991 Int=      0 D2E=      0 Chk=     87 Scr=      1
 Normal termination of Gaussian 09 at Fri Mar  1 01:31:41 2024.
