 Entering Gaussian System, Link 0=g09
 Input=ts_ptbu3-v6-released.com
 Output=ts_ptbu3-v6-released.log
 Initial command:
 /cluster/apps/gaussian/g09/l1.exe "/scratch/259574037.tmpdir/Gau-21647.inp" -scrdir="/scratch/259574037.tmpdir/"
 Entering Link 1 = /cluster/apps/gaussian/g09/l1.exe PID=     21655.
  
 Copyright (c) 1988,1990,1992,1993,1995,1998,2003,2009,2013,
            Gaussian, Inc.  All Rights Reserved.
  
 This is part of the Gaussian(R) 09 program.  It is based on
 the Gaussian(R) 03 system (copyright 2003, Gaussian, Inc.),
 the Gaussian(R) 98 system (copyright 1998, Gaussian, Inc.),
 the Gaussian(R) 94 system (copyright 1995, Gaussian, Inc.),
 the Gaussian 92(TM) system (copyright 1992, Gaussian, Inc.),
 the Gaussian 90(TM) system (copyright 1990, Gaussian, Inc.),
 the Gaussian 88(TM) system (copyright 1988, Gaussian, Inc.),
 the Gaussian 86(TM) system (copyright 1986, Carnegie Mellon
 University), and the Gaussian 82(TM) system (copyright 1983,
 Carnegie Mellon University). Gaussian is a federally registered
 trademark of Gaussian, Inc.
  
 This software contains proprietary and confidential information,
 including trade secrets, belonging to Gaussian, Inc.
  
 This software is provided under written license and may be
 used, copied, transmitted, or stored only in accord with that
 written license.
  
 The following legend is applicable only to US Government
 contracts under FAR:
  
                    RESTRICTED RIGHTS LEGEND
  
 Use, reproduction and disclosure by the US Government is
 subject to restrictions as set forth in subparagraphs (a)
 and (c) of the Commercial Computer Software - Restricted
 Rights clause in FAR 52.227-19.
  
 Gaussian, Inc.
 340 Quinnipiac St., Bldg. 40, Wallingford CT 06492
  
  
 ---------------------------------------------------------------
 Warning -- This program may not be used in any manner that
 competes with the business of Gaussian, Inc. or will provide
 assistance to any competitor of Gaussian, Inc.  The licensee
 of this program is prohibited from giving any competitor of
 Gaussian, Inc. access to this program.  By using this program,
 the user acknowledges that Gaussian, Inc. is engaged in the
 business of creating and licensing software in the field of
 computational chemistry and represents and warrants to the
 licensee that it is not a competitor of Gaussian, Inc. and that
 it will not use this program in any manner prohibited above.
 ---------------------------------------------------------------
  

 Cite this work as:
 Gaussian 09, Revision D.01,
 M. J. Frisch, G. W. Trucks, H. B. Schlegel, G. E. Scuseria, 
 M. A. Robb, J. R. Cheeseman, G. Scalmani, V. Barone, B. Mennucci, 
 G. A. Petersson, H. Nakatsuji, M. Caricato, X. Li, H. P. Hratchian, 
 A. F. Izmaylov, J. Bloino, G. Zheng, J. L. Sonnenberg, M. Hada, 
 M. Ehara, K. Toyota, R. Fukuda, J. Hasegawa, M. Ishida, T. Nakajima, 
 Y. Honda, O. Kitao, H. Nakai, T. Vreven, J. A. Montgomery, Jr., 
 J. E. Peralta, F. Ogliaro, M. Bearpark, J. J. Heyd, E. Brothers, 
 K. N. Kudin, V. N. Staroverov, T. Keith, R. Kobayashi, J. Normand, 
 K. Raghavachari, A. Rendell, J. C. Burant, S. S. Iyengar, J. Tomasi, 
 M. Cossi, N. Rega, J. M. Millam, M. Klene, J. E. Knox, J. B. Cross, 
 V. Bakken, C. Adamo, J. Jaramillo, R. Gomperts, R. E. Stratmann, 
 O. Yazyev, A. J. Austin, R. Cammi, C. Pomelli, J. W. Ochterski, 
 R. L. Martin, K. Morokuma, V. G. Zakrzewski, G. A. Voth, 
 P. Salvador, J. J. Dannenberg, S. Dapprich, A. D. Daniels, 
 O. Farkas, J. B. Foresman, J. V. Ortiz, J. Cioslowski, 
 and D. J. Fox, Gaussian, Inc., Wallingford CT, 2013.
 
 ******************************************
 Gaussian 09:  ES64L-G09RevD.01 24-Apr-2013
                 9-Jun-2023 
 ******************************************
 %nprocshared=16
 Will use up to   16 processors via shared memory.
 %mem=32GB
 %oldchk=ts_ptbu3-v6.chk
 %chk=ts_ptbu3-v6-released.chk
 Copying data from "ts_ptbu3-v6.chk" to current chk file "ts_ptbu3-v6-released.chk".
 ----------------------------------------------------------------------
 #p opt(ts,readfc,noeigentest,nofreeze) freq=noraman geom=allcheck pbe1
 pbe genecp temperature=298 integral(grid=ultrafine) empiricaldispersio
 n=gd3bj
 ----------------------------------------------------------------------
 1/5=1,10=3,11=1,14=-1,18=20,26=4,29=2007,38=1,112=298000/1,3;
 2/9=110,12=2,40=1/2;
 3/5=7,11=2,14=-4,16=1,17=8,25=1,30=1,71=1,74=-13,75=-5,124=41/1,2,3;
 4//1;
 5/5=2,38=5/2;
 6/7=2,8=2,9=2,10=2,28=1/1;
 7//1,2,3,16;
 1/5=1,11=1,14=-1,18=20,26=4/3(2);
 2/9=110/2;
 99//99;
 2/9=110/2;
 3/5=7,6=1,11=2,14=-2,16=1,17=8,25=1,30=1,71=1,74=-13,75=-5,82=7,124=41/1,2,3;
 4/5=5,16=3,69=1/1;
 5/5=2,38=5/2;
 7//1,2,3,16;
 1/5=1,11=1,14=-1,18=20,26=4/3(-5);
 2/9=110/2;
 6/7=2,8=2,9=2,10=2,19=2,28=1/1;
 99/9=1/99;
 Leave Link    1 at Fri Jun  9 11:19:02 2023, MaxMem=  4294967296 cpu:         2.3
 (Enter /cluster/apps/gaussian/g09/l101.exe)
 Structure from the checkpoint file:  "ts_ptbu3-v6-released.chk"
 -----
 title
 -----
 Charge =  0 Multiplicity = 1
 Redundant internal coordinates found in file.
 Pd,0,0.6861896835,-0.8123084981,-0.0458195785
 P,0,2.603231629,-0.0015327325,0.9296165886
 C,0,2.9601138034,-1.048312241,2.4918309381
 C,0,2.6678408526,-2.515475466,2.1401790274
 H,0,3.3548745077,-2.9366342046,1.3995273852
 H,0,2.7524548934,-3.1238737481,3.0560471134
 H,0,1.6411057016,-2.633440735,1.7543471967
 C,0,4.3728951428,-0.9234953703,3.0635728676
 H,0,5.14125421,-1.298386966,2.3748986445
 H,0,4.4428381762,-1.5276288954,3.9837611218
 H,0,4.6286173821,0.1103654976,3.3297083931
 C,0,1.9466311531,-0.6746933224,3.578680872
 H,0,2.0184164291,-1.4163541612,4.3909366735
 H,0,2.1361902675,0.3109679983,4.02202516
 H,0,0.9152098185,-0.6999786237,3.194581967
 C,0,4.0915642632,-0.1392199292,-0.2642689466
 C,0,5.317388503,0.6913498896,0.1172314783
 H,0,5.6973299398,0.4496564884,1.1186524838
 H,0,6.1276894101,0.4839746316,-0.6016665088
 H,0,5.1211887793,1.7708809639,0.0762047151
 C,0,4.5015643088,-1.6108097199,-0.3869425398
 H,0,3.6403045276,-2.2495679777,-0.6352169386
 H,0,5.2255776467,-1.6993988235,-1.2133249005
 H,0,4.9891640186,-2.0038501527,0.5139235313
 C,0,3.6019847196,0.2627316679,-1.662982375
 H,0,4.4391349996,0.1567205918,-2.3730372285
 H,0,2.7899850827,-0.4027159979,-1.9900075232
 H,0,3.2364969259,1.2926384226,-1.7279652535
 C,0,2.3751960161,1.8295137745,1.4427462628
 C,0,3.4126058771,2.3620201264,2.4325671397
 H,0,3.3587969766,1.8559692429,3.4058359762
 H,0,3.2127265186,3.431138146,2.6155597129
 H,0,4.4417391626,2.2802057909,2.0603713302
 C,0,0.9713636885,1.9942419548,2.0438835588
 H,0,0.2026381113,1.5880060849,1.3720209938
 H,0,0.7721037377,3.0708186653,2.1738866611
 H,0,0.8575064096,1.5195306338,3.0233830293
 C,0,2.3910882711,2.6925837605,0.1760970511
 H,0,1.6701197345,2.3316363762,-0.5717299098
 H,0,2.0942110485,3.7175246089,0.4518746192
 H,0,3.3828652582,2.7570915489,-0.289031426
 C,0,-0.4618789884,0.4470180147,-1.2079188173
 C,0,0.1423555441,0.7860421342,-2.4339723168
 H,0,0.7402638867,0.0549144774,-2.9771280981
 C,0,0.0039887642,2.0809473696,-2.9040319209
 H,0,0.5152857131,2.3973021358,-3.8153644922
 C,0,-0.7856332706,3.03128574,-2.2251782586
 C,0,-1.5258705451,2.6433496099,-1.1098907021
 H,0,-2.2322418473,3.3177630286,-0.6291689834
 C,0,-1.4121087274,1.3258993655,-0.6370342541
 C,0,-2.2984442389,0.6413270819,0.2812045688
 C,0,-3.209807679,1.1732100283,1.1902701467
 C,0,-4.0036989901,0.3319028493,1.9613601658
 C,0,-3.8805949719,-1.0541691602,1.834060127
 C,0,-2.960186611,-1.6125397171,0.9474111856
 C,0,-2.1925589827,-0.7673500096,0.1445779591
 N,0,-1.1909869668,-1.1669964266,-0.7588001739
 S,0,-1.5448489712,-2.0952571984,-2.1265641125
 O,0,-0.2761435675,-2.2597324821,-2.8103021314
 O,0,-2.3661851516,-3.228106975,-1.7453452286
 C,0,-2.6284225188,-0.9708228577,-3.0887185735
 Cl,0,-2.2109705017,-0.9699584118,-4.7912900882
 H,0,-2.520337337,0.0443577398,-2.6835853951
 H,0,-3.6446480285,-1.3567329604,-2.9433646559
 F,0,-2.8137420145,-2.9217324212,0.9379088649
 F,0,-4.6097547328,-1.8413632456,2.6061051174
 F,0,-4.8648140126,0.8327385819,2.8309858589
 F,0,-3.3253688142,2.4884632241,1.3525153114
 O,0,-0.8024529778,4.2722527956,-2.7567894884
 C,0,-1.5985757173,5.2465108834,-2.1458106852
 H,0,-1.3087002132,5.4111891395,-1.0923571498
 H,0,-2.6708297501,4.9823485493,-2.1776594245
 H,0,-1.4470232465,6.1773363464,-2.7068129088
 Recover connectivity data from disk.
 Any frozen variables have been unfrozen.
 NAtoms=     73 NQM=       73 NQMF=       0 NMMI=      0 NMMIF=      0
                NMic=       0 NMicF=      0.
                    Isotopes and Nuclear Properties:
 (Nuclear quadrupole moments (NQMom) in fm**2, nuclear magnetic moments (NMagM)
  in nuclear magnetons)

  Atom         1           2           3           4           5           6           7           8           9          10
 IAtWgt=         106          31          12          12           1           1           1          12           1           1
 AtmWgt= 105.9032000  30.9737634  12.0000000  12.0000000   1.0078250   1.0078250   1.0078250  12.0000000   1.0078250   1.0078250
 NucSpn=           0           1           0           0           1           1           1           0           1           1
 AtZEff=-237.3600000 -12.9400000  -3.6000000  -3.6000000  -1.0000000  -1.0000000  -1.0000000  -3.6000000  -1.0000000  -1.0000000
 NQMom=    0.0000000   0.0000000   0.0000000   0.0000000   0.0000000   0.0000000   0.0000000   0.0000000   0.0000000   0.0000000
 NMagM=    0.0000000   1.1316000   0.0000000   0.0000000   2.7928460   2.7928460   2.7928460   0.0000000   2.7928460   2.7928460
 AtZNuc=  46.0000000  15.0000000   6.0000000   6.0000000   1.0000000   1.0000000   1.0000000   6.0000000   1.0000000   1.0000000

  Atom        11          12          13          14          15          16          17          18          19          20
 IAtWgt=           1          12           1           1           1          12          12           1           1           1
 AtmWgt=   1.0078250  12.0000000   1.0078250   1.0078250   1.0078250  12.0000000  12.0000000   1.0078250   1.0078250   1.0078250
 NucSpn=           1           0           1           1           1           0           0           1           1           1
 AtZEff=  -1.0000000  -3.6000000  -1.0000000  -1.0000000  -1.0000000  -3.6000000  -3.6000000  -1.0000000  -1.0000000  -1.0000000
 NQMom=    0.0000000   0.0000000   0.0000000   0.0000000   0.0000000   0.0000000   0.0000000   0.0000000   0.0000000   0.0000000
 NMagM=    2.7928460   0.0000000   2.7928460   2.7928460   2.7928460   0.0000000   0.0000000   2.7928460   2.7928460   2.7928460
 AtZNuc=   1.0000000   6.0000000   1.0000000   1.0000000   1.0000000   6.0000000   6.0000000   1.0000000   1.0000000   1.0000000

  Atom        21          22          23          24          25          26          27          28          29          30
 IAtWgt=          12           1           1           1          12           1           1           1          12          12
 AtmWgt=  12.0000000   1.0078250   1.0078250   1.0078250  12.0000000   1.0078250   1.0078250   1.0078250  12.0000000  12.0000000
 NucSpn=           0           1           1           1           0           1           1           1           0           0
 AtZEff=  -3.6000000  -1.0000000  -1.0000000  -1.0000000  -3.6000000  -1.0000000  -1.0000000  -1.0000000  -3.6000000  -3.6000000
 NQMom=    0.0000000   0.0000000   0.0000000   0.0000000   0.0000000   0.0000000   0.0000000   0.0000000   0.0000000   0.0000000
 NMagM=    0.0000000   2.7928460   2.7928460   2.7928460   0.0000000   2.7928460   2.7928460   2.7928460   0.0000000   0.0000000
 AtZNuc=   6.0000000   1.0000000   1.0000000   1.0000000   6.0000000   1.0000000   1.0000000   1.0000000   6.0000000   6.0000000

  Atom        31          32          33          34          35          36          37          38          39          40
 IAtWgt=           1           1           1          12           1           1           1          12           1           1
 AtmWgt=   1.0078250   1.0078250   1.0078250  12.0000000   1.0078250   1.0078250   1.0078250  12.0000000   1.0078250   1.0078250
 NucSpn=           1           1           1           0           1           1           1           0           1           1
 AtZEff=  -1.0000000  -1.0000000  -1.0000000  -3.6000000  -1.0000000  -1.0000000  -1.0000000  -3.6000000  -1.0000000  -1.0000000
 NQMom=    0.0000000   0.0000000   0.0000000   0.0000000   0.0000000   0.0000000   0.0000000   0.0000000   0.0000000   0.0000000
 NMagM=    2.7928460   2.7928460   2.7928460   0.0000000   2.7928460   2.7928460   2.7928460   0.0000000   2.7928460   2.7928460
 AtZNuc=   1.0000000   1.0000000   1.0000000   6.0000000   1.0000000   1.0000000   1.0000000   6.0000000   1.0000000   1.0000000

  Atom        41          42          43          44          45          46          47          48          49          50
 IAtWgt=           1          12          12           1          12           1          12          12           1          12
 AtmWgt=   1.0078250  12.0000000  12.0000000   1.0078250  12.0000000   1.0078250  12.0000000  12.0000000   1.0078250  12.0000000
 NucSpn=           1           0           0           1           0           1           0           0           1           0
 AtZEff=  -1.0000000  -3.6000000  -3.6000000  -1.0000000  -3.6000000  -1.0000000  -3.6000000  -3.6000000  -1.0000000  -3.6000000
 NQMom=    0.0000000   0.0000000   0.0000000   0.0000000   0.0000000   0.0000000   0.0000000   0.0000000   0.0000000   0.0000000
 NMagM=    2.7928460   0.0000000   0.0000000   2.7928460   0.0000000   2.7928460   0.0000000   0.0000000   2.7928460   0.0000000
 AtZNuc=   1.0000000   6.0000000   6.0000000   1.0000000   6.0000000   1.0000000   6.0000000   6.0000000   1.0000000   6.0000000

  Atom        51          52          53          54          55          56          57          58          59          60
 IAtWgt=          12          12          12          12          12          12          14          32          16          16
 AtmWgt=  12.0000000  12.0000000  12.0000000  12.0000000  12.0000000  12.0000000  14.0030740  31.9720718  15.9949146  15.9949146
 NucSpn=           0           0           0           0           0           0           2           0           0           0
 AtZEff=  -3.6000000  -3.6000000  -3.6000000  -3.6000000  -3.6000000  -3.6000000  -4.5500000 -13.6000000  -5.6000000  -5.6000000
 NQMom=    0.0000000   0.0000000   0.0000000   0.0000000   0.0000000   0.0000000   2.0440000   0.0000000   0.0000000   0.0000000
 NMagM=    0.0000000   0.0000000   0.0000000   0.0000000   0.0000000   0.0000000   0.4037610   0.0000000   0.0000000   0.0000000
 AtZNuc=   6.0000000   6.0000000   6.0000000   6.0000000   6.0000000   6.0000000   7.0000000  16.0000000   8.0000000   8.0000000

  Atom        61          62          63          64          65          66          67          68          69          70
 IAtWgt=          12          35           1           1          19          19          19          19          16          12
 AtmWgt=  12.0000000  34.9688527   1.0078250   1.0078250  18.9984033  18.9984033  18.9984033  18.9984033  15.9949146  12.0000000
 NucSpn=           0           3           1           1           1           1           1           1           0           0
 AtZEff=  -3.6000000 -14.2400000  -1.0000000  -1.0000000  -6.7500000  -6.7500000  -6.7500000  -6.7500000  -5.6000000  -3.6000000
 NQMom=    0.0000000  -8.1650000   0.0000000   0.0000000   0.0000000   0.0000000   0.0000000   0.0000000   0.0000000   0.0000000
 NMagM=    0.0000000   0.8218740   2.7928460   2.7928460   2.6288670   2.6288670   2.6288670   2.6288670   0.0000000   0.0000000
 AtZNuc=   6.0000000  17.0000000   1.0000000   1.0000000   9.0000000   9.0000000   9.0000000   9.0000000   8.0000000   6.0000000

  Atom        71          72          73
 IAtWgt=           1           1           1
 AtmWgt=   1.0078250   1.0078250   1.0078250
 NucSpn=           1           1           1
 AtZEff=  -1.0000000  -1.0000000  -1.0000000
 NQMom=    0.0000000   0.0000000   0.0000000
 NMagM=    2.7928460   2.7928460   2.7928460
 AtZNuc=   1.0000000   1.0000000   1.0000000
 Leave Link  101 at Fri Jun  9 11:19:03 2023, MaxMem=  4294967296 cpu:        12.3
 (Enter /cluster/apps/gaussian/g09/l103.exe)

 GradGradGradGradGradGradGradGradGradGradGradGradGradGradGradGradGradGrad
 Berny optimization.
 Initialization pass.
 Force constant matrix read from checkpoint file:
 "ts_ptbu3-v6-released.chk"
 NVar current= 415 chk= 415 common= 415.
                           ----------------------------
                           !    Initial Parameters    !
                           ! (Angstroms and Degrees)  !
 --------------------------                            --------------------------
 ! Name  Definition              Value          Derivative Info.                !
 --------------------------------------------------------------------------------
 ! R1    R(1,2)                  2.2987         D2E/DX2 =    0.1114             !
 ! R2    R(1,42)                 2.0626         D2E/DX2 =    0.0843             !
 ! R3    R(1,57)                 2.0391         D2E/DX2 =    0.1034             !
 ! R4    R(2,3)                  1.9141         D2E/DX2 =    0.1705             !
 ! R5    R(2,16)                 1.913          D2E/DX2 =    0.1726             !
 ! R6    R(2,29)                 1.9152         D2E/DX2 =    0.1715             !
 ! R7    R(3,4)                  1.5368         D2E/DX2 =    0.2821             !
 ! R8    R(3,8)                  1.5292         D2E/DX2 =    0.2892             !
 ! R9    R(3,12)                 1.5323         D2E/DX2 =    0.2873             !
 ! R10   R(4,5)                  1.0945         D2E/DX2 =    0.3616             !
 ! R11   R(4,6)                  1.1028         D2E/DX2 =    0.3384             !
 ! R12   R(4,7)                  1.1032         D2E/DX2 =    0.3365             !
 ! R13   R(8,9)                  1.0978         D2E/DX2 =    0.3516             !
 ! R14   R(8,10)                 1.103          D2E/DX2 =    0.3379             !
 ! R15   R(8,11)                 1.0978         D2E/DX2 =    0.3523             !
 ! R16   R(12,13)                1.1023         D2E/DX2 =    0.3394             !
 ! R17   R(12,14)                1.0973         D2E/DX2 =    0.3522             !
 ! R18   R(12,15)                1.1009         D2E/DX2 =    0.3436             !
 ! R19   R(16,17)                1.5291         D2E/DX2 =    0.2894             !
 ! R20   R(16,21)                1.5326         D2E/DX2 =    0.2866             !
 ! R21   R(16,25)                1.5355         D2E/DX2 =    0.2863             !
 ! R22   R(17,18)                1.098          D2E/DX2 =    0.3517             !
 ! R23   R(17,19)                1.1029         D2E/DX2 =    0.3381             !
 ! R24   R(17,20)                1.098          D2E/DX2 =    0.351              !
 ! R25   R(21,22)                1.1006         D2E/DX2 =    0.3442             !
 ! R26   R(21,23)                1.1022         D2E/DX2 =    0.3395             !
 ! R27   R(21,24)                1.0972         D2E/DX2 =    0.3532             !
 ! R28   R(25,26)                1.1028         D2E/DX2 =    0.3382             !
 ! R29   R(25,27)                1.0996         D2E/DX2 =    0.3467             !
 ! R30   R(25,28)                1.0948         D2E/DX2 =    0.361              !
 ! R31   R(29,30)                1.5296         D2E/DX2 =    0.2885             !
 ! R32   R(29,34)                1.536          D2E/DX2 =    0.2836             !
 ! R33   R(29,38)                1.5328         D2E/DX2 =    0.2868             !
 ! R34   R(30,31)                1.0983         D2E/DX2 =    0.3505             !
 ! R35   R(30,32)                1.1029         D2E/DX2 =    0.3381             !
 ! R36   R(30,33)                1.0974         D2E/DX2 =    0.3538             !
 ! R37   R(34,35)                1.0988         D2E/DX2 =    0.3504             !
 ! R38   R(34,36)                1.1026         D2E/DX2 =    0.3385             !
 ! R39   R(34,37)                1.0944         D2E/DX2 =    0.3609             !
 ! R40   R(38,39)                1.0997         D2E/DX2 =    0.3486             !
 ! R41   R(38,40)                1.1021         D2E/DX2 =    0.3395             !
 ! R42   R(38,41)                1.0973         D2E/DX2 =    0.3523             !
 ! R43   R(42,43)                1.4083         D2E/DX2 =    0.3776             !
 ! R44   R(42,50)                1.4147         D2E/DX2 =    0.2977             !
 ! R45   R(42,57)                1.8271         D2E/DX2 =    0.0162             !
 ! R46   R(43,44)                1.0895         D2E/DX2 =    0.3723             !
 ! R47   R(43,45)                1.3845         D2E/DX2 =    0.4319             !
 ! R48   R(45,46)                1.0918         D2E/DX2 =    0.3668             !
 ! R49   R(45,47)                1.4098         D2E/DX2 =    0.3819             !
 ! R50   R(47,48)                1.3937         D2E/DX2 =    0.4147             !
 ! R51   R(47,69)                1.3501         D2E/DX2 =    0.457              !
 ! R52   R(48,49)                1.0885         D2E/DX2 =    0.3742             !
 ! R53   R(48,50)                1.4044         D2E/DX2 =    0.3986             !
 ! R54   R(50,51)                1.4482         D2E/DX2 =    0.3051             !
 ! R55   R(51,52)                1.3928         D2E/DX2 =    0.4224             !
 ! R56   R(51,56)                1.4192         D2E/DX2 =    0.2788             !
 ! R57   R(52,53)                1.3902         D2E/DX2 =    0.4273             !
 ! R58   R(52,68)                1.3303         D2E/DX2 =    0.4575             !
 ! R59   R(53,54)                1.3973         D2E/DX2 =    0.4095             !
 ! R60   R(53,67)                1.3223         D2E/DX2 =    0.482              !
 ! R61   R(54,55)                1.3947         D2E/DX2 =    0.419              !
 ! R62   R(54,66)                1.3219         D2E/DX2 =    0.4826             !
 ! R63   R(55,56)                1.3958         D2E/DX2 =    0.4169             !
 ! R64   R(55,65)                1.3174         D2E/DX2 =    0.4886             !
 ! R65   R(56,57)                1.4068         D2E/DX2 =    0.3386             !
 ! R66   R(57,58)                1.6905         D2E/DX2 =    0.2485             !
 ! R67   R(58,59)                1.4506         D2E/DX2 =    0.6679             !
 ! R68   R(58,60)                1.4503         D2E/DX2 =    0.674              !
 ! R69   R(58,61)                1.8342         D2E/DX2 =    0.1827             !
 ! R70   R(61,62)                1.753          D2E/DX2 =    0.2512             !
 ! R71   R(61,63)                1.0984         D2E/DX2 =    0.3504             !
 ! R72   R(61,64)                1.0967         D2E/DX2 =    0.3553             !
 ! R73   R(69,70)                1.3987         D2E/DX2 =    0.3832             !
 ! R74   R(70,71)                1.1049         D2E/DX2 =    0.3331             !
 ! R75   R(70,72)                1.1048         D2E/DX2 =    0.3334             !
 ! R76   R(70,73)                1.0973         D2E/DX2 =    0.3537             !
 ! A1    A(2,1,42)             119.2045         D2E/DX2 =    0.0461             !
 ! A2    A(42,1,57)             52.9004         D2E/DX2 =    0.0014             !
 ! A3    A(1,2,3)              107.9957         D2E/DX2 =    0.0275             !
 ! A4    A(1,2,16)             111.0161         D2E/DX2 =    0.0362             !
 ! A5    A(1,2,29)             110.5858         D2E/DX2 =    0.042              !
 ! A6    A(3,2,16)             108.9626         D2E/DX2 =    0.0693             !
 ! A7    A(3,2,29)             109.0494         D2E/DX2 =    0.0651             !
 ! A8    A(16,2,29)            109.1874         D2E/DX2 =    0.0626             !
 ! A9    A(2,3,4)              107.4514         D2E/DX2 =    0.0358             !
 ! A10   A(2,3,8)              115.644          D2E/DX2 =    0.0357             !
 ! A11   A(2,3,12)             108.7983         D2E/DX2 =    0.037              !
 ! A12   A(4,3,8)              109.8275         D2E/DX2 =    0.0315             !
 ! A13   A(4,3,12)             105.6224         D2E/DX2 =    0.0366             !
 ! A14   A(8,3,12)             109.024          D2E/DX2 =    0.0337             !
 ! A15   A(3,4,5)              113.7551         D2E/DX2 =    0.1001             !
 ! A16   A(3,4,6)              108.7884         D2E/DX2 =    0.1008             !
 ! A17   A(3,4,7)              111.047          D2E/DX2 =    0.1004             !
 ! A18   A(5,4,6)              107.5508         D2E/DX2 =    0.05               !
 ! A19   A(5,4,7)              107.8423         D2E/DX2 =    0.052              !
 ! A20   A(6,4,7)              107.6312         D2E/DX2 =    0.0467             !
 ! A21   A(3,8,9)              112.5943         D2E/DX2 =    0.0995             !
 ! A22   A(3,8,10)             109.0137         D2E/DX2 =    0.1009             !
 ! A23   A(3,8,11)             112.5028         D2E/DX2 =    0.0988             !
 ! A24   A(9,8,10)             106.973          D2E/DX2 =    0.0486             !
 ! A25   A(9,8,11)             108.0986         D2E/DX2 =    0.0522             !
 ! A26   A(10,8,11)            107.3861         D2E/DX2 =    0.0485             !
 ! A27   A(3,12,13)            108.3934         D2E/DX2 =    0.1033             !
 ! A28   A(3,12,14)            113.0382         D2E/DX2 =    0.0999             !
 ! A29   A(3,12,15)            111.5058         D2E/DX2 =    0.1008             !
 ! A30   A(13,12,14)           107.183          D2E/DX2 =    0.0489             !
 ! A31   A(13,12,15)           107.6175         D2E/DX2 =    0.0474             !
 ! A32   A(14,12,15)           108.8716         D2E/DX2 =    0.0524             !
 ! A33   A(2,16,17)            115.3989         D2E/DX2 =    0.0378             !
 ! A34   A(2,16,21)            109.0996         D2E/DX2 =    0.0369             !
 ! A35   A(2,16,25)            107.554          D2E/DX2 =    0.0358             !
 ! A36   A(17,16,21)           109.0916         D2E/DX2 =    0.0335             !
 ! A37   A(17,16,25)           109.9194         D2E/DX2 =    0.0317             !
 ! A38   A(21,16,25)           105.2926         D2E/DX2 =    0.0375             !
 ! A39   A(16,17,18)           112.668          D2E/DX2 =    0.0992             !
 ! A40   A(16,17,19)           108.9189         D2E/DX2 =    0.1011             !
 ! A41   A(16,17,20)           112.4257         D2E/DX2 =    0.0994             !
 ! A42   A(18,17,19)           107.3898         D2E/DX2 =    0.0487             !
 ! A43   A(18,17,20)           108.1999         D2E/DX2 =    0.0522             !
 ! A44   A(19,17,20)           106.9654         D2E/DX2 =    0.0484             !
 ! A45   A(16,21,22)           111.4677         D2E/DX2 =    0.1004             !
 ! A46   A(16,21,23)           108.2348         D2E/DX2 =    0.1033             !
 ! A47   A(16,21,24)           113.4            D2E/DX2 =    0.0997             !
 ! A48   A(22,21,23)           107.3513         D2E/DX2 =    0.0471             !
 ! A49   A(22,21,24)           108.9698         D2E/DX2 =    0.0527             !
 ! A50   A(23,21,24)           107.1501         D2E/DX2 =    0.0492             !
 ! A51   A(16,25,26)           108.621          D2E/DX2 =    0.1017             !
 ! A52   A(16,25,27)           110.362          D2E/DX2 =    0.1029             !
 ! A53   A(16,25,28)           114.0032         D2E/DX2 =    0.1021             !
 ! A54   A(26,25,27)           108.1133         D2E/DX2 =    0.0462             !
 ! A55   A(26,25,28)           107.7965         D2E/DX2 =    0.0504             !
 ! A56   A(27,25,28)           107.7663         D2E/DX2 =    0.0523             !
 ! A57   A(2,29,30)            115.1806         D2E/DX2 =    0.0364             !
 ! A58   A(2,29,34)            108.434          D2E/DX2 =    0.037              !
 ! A59   A(2,29,38)            108.402          D2E/DX2 =    0.0376             !
 ! A60   A(30,29,34)           109.2254         D2E/DX2 =    0.0335             !
 ! A61   A(30,29,38)           109.3719         D2E/DX2 =    0.0331             !
 ! A62   A(34,29,38)           105.813          D2E/DX2 =    0.0369             !
 ! A63   A(29,30,31)           112.3229         D2E/DX2 =    0.0991             !
 ! A64   A(29,30,32)           108.7795         D2E/DX2 =    0.1008             !
 ! A65   A(29,30,33)           112.9923         D2E/DX2 =    0.0989             !
 ! A66   A(31,30,32)           106.9017         D2E/DX2 =    0.048              !
 ! A67   A(31,30,33)           108.1884         D2E/DX2 =    0.0524             !
 ! A68   A(32,30,33)           107.3667         D2E/DX2 =    0.0488             !
 ! A69   A(29,34,35)           111.1284         D2E/DX2 =    0.1011             !
 ! A70   A(29,34,36)           108.4238         D2E/DX2 =    0.1026             !
 ! A71   A(29,34,37)           113.5058         D2E/DX2 =    0.1013             !
 ! A72   A(35,34,36)           107.8579         D2E/DX2 =    0.0464             !
 ! A73   A(35,34,37)           108.3066         D2E/DX2 =    0.0525             !
 ! A74   A(36,34,37)           107.41           D2E/DX2 =    0.0496             !
 ! A75   A(29,38,39)           111.7365         D2E/DX2 =    0.1003             !
 ! A76   A(29,38,40)           108.3041         D2E/DX2 =    0.1027             !
 ! A77   A(29,38,41)           113.1251         D2E/DX2 =    0.0995             !
 ! A78   A(39,38,40)           107.3854         D2E/DX2 =    0.0472             !
 ! A79   A(39,38,41)           108.8804         D2E/DX2 =    0.0528             !
 ! A80   A(40,38,41)           107.1485         D2E/DX2 =    0.0488             !
 ! A81   A(1,42,43)            113.495          D2E/DX2 =    0.0539             !
 ! A82   A(1,42,50)            121.7234         D2E/DX2 =    0.031              !
 ! A83   A(43,42,50)           119.3385         D2E/DX2 =    0.0622             !
 ! A84   A(42,43,44)           120.5262         D2E/DX2 =    0.0754             !
 ! A85   A(42,43,45)           118.5455         D2E/DX2 =    0.0714             !
 ! A86   A(44,43,45)           120.8778         D2E/DX2 =    0.0752             !
 ! A87   A(43,45,46)           120.5035         D2E/DX2 =    0.0763             !
 ! A88   A(43,45,47)           121.5312         D2E/DX2 =    0.0799             !
 ! A89   A(46,45,47)           117.9636         D2E/DX2 =    0.0763             !
 ! A90   A(45,47,48)           119.6829         D2E/DX2 =    0.0897             !
 ! A91   A(45,47,69)           115.9107         D2E/DX2 =    0.157              !
 ! A92   A(48,47,69)           124.3554         D2E/DX2 =    0.1708             !
 ! A93   A(47,48,49)           121.7103         D2E/DX2 =    0.0776             !
 ! A94   A(47,48,50)           119.1801         D2E/DX2 =    0.0774             !
 ! A95   A(49,48,50)           119.0187         D2E/DX2 =    0.0802             !
 ! A96   A(42,50,48)           120.0896         D2E/DX2 =    0.0712             !
 ! A97   A(42,50,51)           111.9183         D2E/DX2 =    0.0635             !
 ! A98   A(48,50,51)           127.3982         D2E/DX2 =    0.0861             !
 ! A99   A(50,51,52)           129.3297         D2E/DX2 =    0.0955             !
 ! A100  A(50,51,56)           111.2524         D2E/DX2 =    0.0671             !
 ! A101  A(52,51,56)           119.3859         D2E/DX2 =    0.076              !
 ! A102  A(51,52,53)           120.3042         D2E/DX2 =    0.0845             !
 ! A103  A(51,52,68)           120.9323         D2E/DX2 =    0.1334             !
 ! A104  A(53,52,68)           118.7566         D2E/DX2 =    0.1338             !
 ! A105  A(52,53,54)           119.9637         D2E/DX2 =    0.0838             !
 ! A106  A(52,53,67)           120.4934         D2E/DX2 =    0.1229             !
 ! A107  A(54,53,67)           119.5363         D2E/DX2 =    0.1228             !
 ! A108  A(53,54,55)           120.8768         D2E/DX2 =    0.0841             !
 ! A109  A(53,54,66)           119.2683         D2E/DX2 =    0.1241             !
 ! A110  A(55,54,66)           119.7962         D2E/DX2 =    0.1247             !
 ! A111  A(54,55,56)           119.0909         D2E/DX2 =    0.0841             !
 ! A112  A(54,55,65)           118.4127         D2E/DX2 =    0.1326             !
 ! A113  A(56,55,65)           122.4449         D2E/DX2 =    0.129              !
 ! A114  A(51,56,55)           120.3068         D2E/DX2 =    0.0776             !
 ! A115  A(51,56,57)           113.3854         D2E/DX2 =    0.0656             !
 ! A116  A(55,56,57)           126.0798         D2E/DX2 =    0.0993             !
 ! A117  A(1,57,56)            112.4255         D2E/DX2 =    0.0283             !
 ! A118  A(1,57,58)            124.8289         D2E/DX2 =    0.0711             !
 ! A119  A(56,57,58)           121.7725         D2E/DX2 =    0.0975             !
 ! A120  A(57,58,59)           105.1031         D2E/DX2 =    0.077              !
 ! A121  A(57,58,60)           109.5604         D2E/DX2 =    0.0693             !
 ! A122  A(57,58,61)           102.2081         D2E/DX2 =    0.2223             !
 ! A123  A(59,58,60)           122.0502         D2E/DX2 =    0.0445             !
 ! A124  A(59,58,61)           109.8129         D2E/DX2 =    0.0748             !
 ! A125  A(60,58,61)           106.3907         D2E/DX2 =    0.0799             !
 ! A126  A(58,61,62)           111.66           D2E/DX2 =    0.1647             !
 ! A127  A(58,61,63)           108.3604         D2E/DX2 =    0.1018             !
 ! A128  A(58,61,64)           105.1989         D2E/DX2 =    0.0973             !
 ! A129  A(62,61,63)           109.533          D2E/DX2 =    0.0626             !
 ! A130  A(62,61,64)           110.4602         D2E/DX2 =    0.0591             !
 ! A131  A(63,61,64)           111.5633         D2E/DX2 =    0.0417             !
 ! A132  A(47,69,70)           118.3805         D2E/DX2 =    0.3268             !
 ! A133  A(69,70,71)           111.7747         D2E/DX2 =    0.1389             !
 ! A134  A(69,70,72)           111.9191         D2E/DX2 =    0.139              !
 ! A135  A(69,70,73)           106.7939         D2E/DX2 =    0.1406             !
 ! A136  A(71,70,72)           108.5264         D2E/DX2 =    0.0713             !
 ! A137  A(71,70,73)           108.9512         D2E/DX2 =    0.0689             !
 ! A138  A(72,70,73)           108.7921         D2E/DX2 =    0.0693             !
 ! A139  L(2,1,57,42,-1)       172.105          D2E/DX2 =    0.0393             !
 ! A140  L(2,1,57,42,-2)       191.1074         D2E/DX2 =    0.0216             !
 ! D1    D(42,1,2,3)           154.0971         D2E/DX2 =    0.0235             !
 ! D2    D(42,1,2,16)          -86.5091         D2E/DX2 =    0.0241             !
 ! D3    D(42,1,2,29)           34.8495         D2E/DX2 =    0.0266             !
 ! D4    D(3,2,57,56)           68.0486         D2E/DX2 =    0.0211             !
 ! D5    D(3,2,57,58)         -104.6448         D2E/DX2 =    0.0218             !
 ! D6    D(16,2,57,56)        -168.8926         D2E/DX2 =    0.0206             !
 ! D7    D(16,2,57,58)          18.4139         D2E/DX2 =    0.0188             !
 ! D8    D(29,2,57,56)         -48.9547         D2E/DX2 =    0.0201             !
 ! D9    D(29,2,57,58)         138.3519         D2E/DX2 =    0.0235             !
 ! D10   D(2,1,42,43)           70.4543         D2E/DX2 =    0.015              !
 ! D11   D(2,1,42,50)          -83.29           D2E/DX2 =    0.0123             !
 ! D12   D(57,1,42,43)        -120.6531         D2E/DX2 =    0.0301             !
 ! D13   D(57,1,42,50)          85.6026         D2E/DX2 =    0.0293             !
 ! D14   D(42,1,57,56)         -91.7237         D2E/DX2 =    0.0286             !
 ! D15   D(42,1,57,58)          99.4413         D2E/DX2 =    0.0277             !
 ! D16   D(1,2,3,4)             40.9658         D2E/DX2 =    0.0158             !
 ! D17   D(1,2,3,8)            164.0124         D2E/DX2 =    0.0142             !
 ! D18   D(1,2,3,12)           -72.938          D2E/DX2 =    0.0152             !
 ! D19   D(16,2,3,4)           -79.7199         D2E/DX2 =    0.0252             !
 ! D20   D(16,2,3,8)            43.3267         D2E/DX2 =    0.0219             !
 ! D21   D(16,2,3,12)          166.3763         D2E/DX2 =    0.0213             !
 ! D22   D(29,2,3,4)           161.1829         D2E/DX2 =    0.0228             !
 ! D23   D(29,2,3,8)           -75.7706         D2E/DX2 =    0.0234             !
 ! D24   D(29,2,3,12)           47.279          D2E/DX2 =    0.0237             !
 ! D25   D(1,2,16,17)          164.4101         D2E/DX2 =    0.0122             !
 ! D26   D(1,2,16,21)          -72.3885         D2E/DX2 =    0.0138             !
 ! D27   D(1,2,16,25)           41.3326         D2E/DX2 =    0.0141             !
 ! D28   D(3,2,16,17)          -76.7766         D2E/DX2 =    0.0203             !
 ! D29   D(3,2,16,21)           46.4249         D2E/DX2 =    0.0218             !
 ! D30   D(3,2,16,25)          160.1459         D2E/DX2 =    0.0204             !
 ! D31   D(29,2,16,17)          42.2346         D2E/DX2 =    0.0226             !
 ! D32   D(29,2,16,21)         165.436          D2E/DX2 =    0.0232             !
 ! D33   D(29,2,16,25)         -80.8429         D2E/DX2 =    0.0268             !
 ! D34   D(1,2,29,30)          163.7756         D2E/DX2 =    0.0134             !
 ! D35   D(1,2,29,34)           41.0749         D2E/DX2 =    0.0161             !
 ! D36   D(1,2,29,38)          -73.3569         D2E/DX2 =    0.0151             !
 ! D37   D(3,2,29,30)           45.1668         D2E/DX2 =    0.0214             !
 ! D38   D(3,2,29,34)          -77.5339         D2E/DX2 =    0.0263             !
 ! D39   D(3,2,29,38)          168.0343         D2E/DX2 =    0.0214             !
 ! D40   D(16,2,29,30)         -73.7904         D2E/DX2 =    0.0229             !
 ! D41   D(16,2,29,34)         163.5089         D2E/DX2 =    0.0229             !
 ! D42   D(16,2,29,38)          49.0772         D2E/DX2 =    0.0238             !
 ! D43   D(2,3,4,5)             66.6811         D2E/DX2 =    0.015              !
 ! D44   D(2,3,4,6)           -173.4685         D2E/DX2 =    0.0157             !
 ! D45   D(2,3,4,7)            -55.1927         D2E/DX2 =    0.0153             !
 ! D46   D(8,3,4,5)            -59.8742         D2E/DX2 =    0.0142             !
 ! D47   D(8,3,4,6)             59.9762         D2E/DX2 =    0.0145             !
 ! D48   D(8,3,4,7)            178.2521         D2E/DX2 =    0.0147             !
 ! D49   D(12,3,4,5)          -177.3014         D2E/DX2 =    0.0162             !
 ! D50   D(12,3,4,6)           -57.451          D2E/DX2 =    0.0161             !
 ! D51   D(12,3,4,7)            60.8249         D2E/DX2 =    0.0161             !
 ! D52   D(2,3,8,9)            -64.2937         D2E/DX2 =    0.0145             !
 ! D53   D(2,3,8,10)           177.1621         D2E/DX2 =    0.0151             !
 ! D54   D(2,3,8,11)            58.159          D2E/DX2 =    0.0143             !
 ! D55   D(4,3,8,9)             57.4905         D2E/DX2 =    0.0157             !
 ! D56   D(4,3,8,10)           -61.0537         D2E/DX2 =    0.0158             !
 ! D57   D(4,3,8,11)           179.9433         D2E/DX2 =    0.016              !
 ! D58   D(12,3,8,9)           172.7758         D2E/DX2 =    0.016              !
 ! D59   D(12,3,8,10)           54.2316         D2E/DX2 =    0.0158             !
 ! D60   D(12,3,8,11)          -64.7714         D2E/DX2 =    0.0158             !
 ! D61   D(2,3,12,13)          168.3798         D2E/DX2 =    0.0152             !
 ! D62   D(2,3,12,14)          -72.9529         D2E/DX2 =    0.0156             !
 ! D63   D(2,3,12,15)           50.0954         D2E/DX2 =    0.0156             !
 ! D64   D(4,3,12,13)           53.2842         D2E/DX2 =    0.0155             !
 ! D65   D(4,3,12,14)          171.9515         D2E/DX2 =    0.016              !
 ! D66   D(4,3,12,15)          -65.0001         D2E/DX2 =    0.0159             !
 ! D67   D(8,3,12,13)          -64.6828         D2E/DX2 =    0.0141             !
 ! D68   D(8,3,12,14)           53.9845         D2E/DX2 =    0.0144             !
 ! D69   D(8,3,12,15)          177.0329         D2E/DX2 =    0.0148             !
 ! D70   D(2,16,17,18)          57.372          D2E/DX2 =    0.0143             !
 ! D71   D(2,16,17,19)         176.4195         D2E/DX2 =    0.015              !
 ! D72   D(2,16,17,20)         -65.2119         D2E/DX2 =    0.0147             !
 ! D73   D(21,16,17,18)        -65.8336         D2E/DX2 =    0.016              !
 ! D74   D(21,16,17,19)         53.2139         D2E/DX2 =    0.0159             !
 ! D75   D(21,16,17,20)        171.5825         D2E/DX2 =    0.0162             !
 ! D76   D(25,16,17,18)        179.1874         D2E/DX2 =    0.0161             !
 ! D77   D(25,16,17,19)        -61.7651         D2E/DX2 =    0.0158             !
 ! D78   D(25,16,17,20)         56.6035         D2E/DX2 =    0.0158             !
 ! D79   D(2,16,21,22)          51.6189         D2E/DX2 =    0.0161             !
 ! D80   D(2,16,21,23)         169.4565         D2E/DX2 =    0.0155             !
 ! D81   D(2,16,21,24)         -71.802          D2E/DX2 =    0.0158             !
 ! D82   D(17,16,21,22)        178.5013         D2E/DX2 =    0.0151             !
 ! D83   D(17,16,21,23)        -63.6611         D2E/DX2 =    0.0144             !
 ! D84   D(17,16,21,24)         55.0805         D2E/DX2 =    0.0146             !
 ! D85   D(25,16,21,22)        -63.568          D2E/DX2 =    0.016              !
 ! D86   D(25,16,21,23)         54.2696         D2E/DX2 =    0.0155             !
 ! D87   D(25,16,21,24)        173.0111         D2E/DX2 =    0.016              !
 ! D88   D(2,16,25,26)        -178.1084         D2E/DX2 =    0.0159             !
 ! D89   D(2,16,25,27)         -59.7495         D2E/DX2 =    0.0155             !
 ! D90   D(2,16,25,28)          61.6869         D2E/DX2 =    0.015              !
 ! D91   D(17,16,25,26)         55.5124         D2E/DX2 =    0.0147             !
 ! D92   D(17,16,25,27)        173.8712         D2E/DX2 =    0.015              !
 ! D93   D(17,16,25,28)        -64.6924         D2E/DX2 =    0.0144             !
 ! D94   D(21,16,25,26)        -61.8585         D2E/DX2 =    0.0161             !
 ! D95   D(21,16,25,27)         56.5003         D2E/DX2 =    0.0161             !
 ! D96   D(21,16,25,28)        177.9367         D2E/DX2 =    0.0161             !
 ! D97   D(2,29,30,31)         -64.6168         D2E/DX2 =    0.0149             !
 ! D98   D(2,29,30,32)         177.2469         D2E/DX2 =    0.0153             !
 ! D99   D(2,29,30,33)          58.1194         D2E/DX2 =    0.0145             !
 ! D100  D(34,29,30,31)         57.6601         D2E/DX2 =    0.016              !
 ! D101  D(34,29,30,32)        -60.4762         D2E/DX2 =    0.0159             !
 ! D102  D(34,29,30,33)       -179.6037         D2E/DX2 =    0.0162             !
 ! D103  D(38,29,30,31)        173.0343         D2E/DX2 =    0.0161             !
 ! D104  D(38,29,30,32)         54.8981         D2E/DX2 =    0.0159             !
 ! D105  D(38,29,30,33)        -64.2294         D2E/DX2 =    0.0158             !
 ! D106  D(2,29,34,35)         -51.74           D2E/DX2 =    0.0151             !
 ! D107  D(2,29,34,36)        -170.1155         D2E/DX2 =    0.0158             !
 ! D108  D(2,29,34,37)          70.6231         D2E/DX2 =    0.0152             !
 ! D109  D(30,29,34,35)       -177.9831         D2E/DX2 =    0.0146             !
 ! D110  D(30,29,34,36)         63.6414         D2E/DX2 =    0.0144             !
 ! D111  D(30,29,34,37)        -55.6199         D2E/DX2 =    0.0143             !
 ! D112  D(38,29,34,35)         64.3795         D2E/DX2 =    0.0157             !
 ! D113  D(38,29,34,36)        -53.996          D2E/DX2 =    0.016              !
 ! D114  D(38,29,34,37)       -173.2574         D2E/DX2 =    0.0161             !
 ! D115  D(2,29,38,39)          52.6403         D2E/DX2 =    0.016              !
 ! D116  D(2,29,38,40)         170.7198         D2E/DX2 =    0.0156             !
 ! D117  D(2,29,38,41)         -70.6623         D2E/DX2 =    0.0158             !
 ! D118  D(30,29,38,39)        178.9599         D2E/DX2 =    0.0152             !
 ! D119  D(30,29,38,40)        -62.9606         D2E/DX2 =    0.0145             !
 ! D120  D(30,29,38,41)         55.6573         D2E/DX2 =    0.0148             !
 ! D121  D(34,29,38,39)        -63.5009         D2E/DX2 =    0.0164             !
 ! D122  D(34,29,38,40)         54.5786         D2E/DX2 =    0.016              !
 ! D123  D(34,29,38,41)        173.1965         D2E/DX2 =    0.0165             !
 ! D124  D(1,42,43,44)          36.2859         D2E/DX2 =    0.008              !
 ! D125  D(1,42,43,45)        -141.1533         D2E/DX2 =    0.0077             !
 ! D126  D(50,42,43,44)       -169.2863         D2E/DX2 =    0.0074             !
 ! D127  D(50,42,43,45)         13.2745         D2E/DX2 =    0.0081             !
 ! D128  D(1,42,50,48)         137.6521         D2E/DX2 =    0.005              !
 ! D129  D(1,42,50,51)         -50.5455         D2E/DX2 =    0.005              !
 ! D130  D(43,42,50,48)        -14.6122         D2E/DX2 =    0.0067             !
 ! D131  D(43,42,50,51)        157.1903         D2E/DX2 =    0.0089             !
 ! D132  D(42,43,45,46)        175.8005         D2E/DX2 =    0.0086             !
 ! D133  D(42,43,45,47)         -3.7232         D2E/DX2 =    0.0087             !
 ! D134  D(44,43,45,46)         -1.6294         D2E/DX2 =    0.009              !
 ! D135  D(44,43,45,47)        178.8469         D2E/DX2 =    0.0085             !
 ! D136  D(43,45,47,48)         -4.7869         D2E/DX2 =    0.008              !
 ! D137  D(43,45,47,69)        177.6963         D2E/DX2 =    0.0083             !
 ! D138  D(46,45,47,48)        175.6776         D2E/DX2 =    0.0073             !
 ! D139  D(46,45,47,69)         -1.8392         D2E/DX2 =    0.0092             !
 ! D140  D(45,47,48,49)       -172.9411         D2E/DX2 =    0.0082             !
 ! D141  D(45,47,48,50)          3.5568         D2E/DX2 =    0.0078             !
 ! D142  D(69,47,48,49)          4.3532         D2E/DX2 =    0.0095             !
 ! D143  D(69,47,48,50)       -179.1489         D2E/DX2 =    0.0098             !
 ! D144  D(45,47,69,70)        178.2627         D2E/DX2 =    0.0097             !
 ! D145  D(48,47,69,70)          0.876          D2E/DX2 =    0.0089             !
 ! D146  D(47,48,50,42)          6.0602         D2E/DX2 =    0.0079             !
 ! D147  D(47,48,50,51)       -164.3549         D2E/DX2 =    0.0097             !
 ! D148  D(49,48,50,42)       -177.3468         D2E/DX2 =    0.0072             !
 ! D149  D(49,48,50,51)         12.2381         D2E/DX2 =    0.0083             !
 ! D150  D(42,50,51,52)        168.6557         D2E/DX2 =    0.0076             !
 ! D151  D(42,50,51,56)        -13.4511         D2E/DX2 =    0.0094             !
 ! D152  D(48,50,51,52)        -20.2782         D2E/DX2 =    0.0064             !
 ! D153  D(48,50,51,56)        157.615          D2E/DX2 =    0.0082             !
 ! D154  D(50,51,52,53)        178.0607         D2E/DX2 =    0.0072             !
 ! D155  D(50,51,52,68)         -2.9065         D2E/DX2 =    0.0091             !
 ! D156  D(56,51,52,53)          0.3142         D2E/DX2 =    0.006              !
 ! D157  D(56,51,52,68)        179.347          D2E/DX2 =    0.0091             !
 ! D158  D(50,51,56,55)        179.6021         D2E/DX2 =    0.0058             !
 ! D159  D(50,51,56,57)          4.7622         D2E/DX2 =    0.0079             !
 ! D160  D(52,51,56,55)         -2.268          D2E/DX2 =    0.0053             !
 ! D161  D(52,51,56,57)       -177.1079         D2E/DX2 =    0.0061             !
 ! D162  D(51,52,53,54)          0.5536         D2E/DX2 =    0.0061             !
 ! D163  D(51,52,53,67)        179.617          D2E/DX2 =    0.0095             !
 ! D164  D(68,52,53,54)       -178.5            D2E/DX2 =    0.009              !
 ! D165  D(68,52,53,67)          0.5634         D2E/DX2 =    0.0114             !
 ! D166  D(52,53,54,55)          0.5186         D2E/DX2 =    0.0055             !
 ! D167  D(52,53,54,66)        177.728          D2E/DX2 =    0.0091             !
 ! D168  D(67,53,54,55)       -178.5538         D2E/DX2 =    0.0089             !
 ! D169  D(67,53,54,66)         -1.3443         D2E/DX2 =    0.0112             !
 ! D170  D(53,54,55,56)         -2.4438         D2E/DX2 =    0.006              !
 ! D171  D(53,54,55,65)        175.0095         D2E/DX2 =    0.0092             !
 ! D172  D(66,54,55,56)       -179.6386         D2E/DX2 =    0.0093             !
 ! D173  D(66,54,55,65)         -2.1853         D2E/DX2 =    0.0117             !
 ! D174  D(54,55,56,51)          3.3056         D2E/DX2 =    0.0059             !
 ! D175  D(54,55,56,57)        177.4431         D2E/DX2 =    0.0075             !
 ! D176  D(65,55,56,51)       -174.0401         D2E/DX2 =    0.0105             !
 ! D177  D(65,55,56,57)          0.0973         D2E/DX2 =    0.0097             !
 ! D178  D(51,56,57,1)          70.0821         D2E/DX2 =    0.0066             !
 ! D179  D(51,56,57,58)       -120.6936         D2E/DX2 =    0.01               !
 ! D180  D(55,56,57,1)        -104.4047         D2E/DX2 =    0.0065             !
 ! D181  D(55,56,57,58)         64.8196         D2E/DX2 =    0.0096             !
 ! D182  D(1,57,58,59)         -13.856          D2E/DX2 =    0.0309             !
 ! D183  D(1,57,58,60)         118.9252         D2E/DX2 =    0.0341             !
 ! D184  D(1,57,58,61)        -128.5385         D2E/DX2 =    0.025              !
 ! D185  D(56,57,58,59)        178.2981         D2E/DX2 =    0.0346             !
 ! D186  D(56,57,58,60)        -48.9207         D2E/DX2 =    0.0303             !
 ! D187  D(56,57,58,61)         63.6156         D2E/DX2 =    0.022              !
 ! D188  D(57,58,61,62)        136.3855         D2E/DX2 =    0.0234             !
 ! D189  D(57,58,61,63)         15.6648         D2E/DX2 =    0.023              !
 ! D190  D(57,58,61,64)       -103.7706         D2E/DX2 =    0.0222             !
 ! D191  D(59,58,61,62)         25.205          D2E/DX2 =    0.027              !
 ! D192  D(59,58,61,63)        -95.5157         D2E/DX2 =    0.0252             !
 ! D193  D(59,58,61,64)        145.0489         D2E/DX2 =    0.0256             !
 ! D194  D(60,58,61,62)       -108.736          D2E/DX2 =    0.0245             !
 ! D195  D(60,58,61,63)        130.5433         D2E/DX2 =    0.0237             !
 ! D196  D(60,58,61,64)         11.1079         D2E/DX2 =    0.0249             !
 ! D197  D(47,69,70,71)         59.229          D2E/DX2 =    0.0291             !
 ! D198  D(47,69,70,72)        -62.7462         D2E/DX2 =    0.0293             !
 ! D199  D(47,69,70,73)        178.2973         D2E/DX2 =    0.0258             !
 --------------------------------------------------------------------------------
 Trust Radius=3.00D-01 FncErr=1.00D-07 GrdErr=1.00D-06
 Number of steps in this run=    425 maximum allowed number of steps=    438.
 Search for a saddle point of order  1.
 GradGradGradGradGradGradGradGradGradGradGradGradGradGradGradGradGradGrad

 Leave Link  103 at Fri Jun  9 11:19:03 2023, MaxMem=  4294967296 cpu:         0.3
 (Enter /cluster/apps/gaussian/g09/l202.exe)
 Stoichiometry    C26H35ClF4NO3PPdS
 Framework group  C1[X(C26H35ClF4NO3PPdS)]
 Deg. of freedom   213
 Full point group                 C1      NOp   1
 RotChk:  IX=3 Diff= 4.88D-15
 Largest Abelian subgroup         C1      NOp   1
 Largest concise Abelian subgroup C1      NOp   1
                         Standard orientation:                         
 ---------------------------------------------------------------------
 Center     Atomic      Atomic             Coordinates (Angstroms)
 Number     Number       Type             X           Y           Z
 ---------------------------------------------------------------------
      1         46           0       -0.706586    0.291751   -0.822144
      2         15           0       -2.855160    0.284286   -0.005165
      3          6           0       -3.605107    2.020830   -0.297776
      4          6           0       -3.163993    2.483851   -1.695160
      5          1           0       -3.589916    1.891235   -2.510850
      6          1           0       -3.484686    3.528881   -1.840727
      7          1           0       -2.065645    2.454559   -1.793849
      8          6           0       -5.126695    2.113524   -0.176960
      9          1           0       -5.647312    1.523986   -0.942855
     10          1           0       -5.434777    3.163678   -0.314353
     11          1           0       -5.490432    1.791059    0.807317
     12          6           0       -2.965028    3.007076    0.684874
     13          1           0       -3.238068    4.030050    0.378366
     14          1           0       -3.314714    2.873505    1.716326
     15          1           0       -1.866486    2.936613    0.669368
     16          6           0       -3.928137   -1.016483   -0.908589
     17          6           0       -5.244780   -1.374321   -0.218344
     18          1           0       -5.887651   -0.499548   -0.053712
     19          1           0       -5.803626   -2.078519   -0.857251
     20          1           0       -5.089381   -1.872387    0.747755
     21          6           0       -4.224710   -0.522911   -2.328855
     22          1           0       -3.303097   -0.228649   -2.853698
     23          1           0       -4.674824   -1.354070   -2.895885
     24          1           0       -4.935316    0.312459   -2.360353
     25          6           0       -3.072158   -2.278406   -1.088880
     26          1           0       -3.663383   -3.029289   -1.639210
     27          1           0       -2.173817   -2.050071   -1.680450
     28          1           0       -2.745890   -2.733374   -0.148101
     29          6           0       -2.860137   -0.090376    1.873035
     30          6           0       -4.160148    0.253665    2.601825
     31          1           0       -4.369210    1.331852    2.595433
     32          1           0       -4.065531   -0.048359    3.658367
     33          1           0       -5.033608   -0.267084    2.189238
     34          6           0       -1.697824    0.674242    2.523907
     35          1           0       -0.751831    0.477120    2.000832
     36          1           0       -1.588794    0.323548    3.563497
     37          1           0       -1.852531    1.757121    2.558141
     38          6           0       -2.544632   -1.577297    2.070682
     39          1           0       -1.624220   -1.871603    1.545753
     40          1           0       -2.382242   -1.756737    3.145914
     41          1           0       -3.361489   -2.237214    1.752278
     42          6           0        0.675820   -1.018293   -0.030197
     43          6           0        0.438275   -2.362431   -0.376764
     44          1           0        0.053204   -2.619926   -1.362906
     45          6           0        0.653518   -3.340207    0.579533
     46          1           0        0.414860   -4.384388    0.367965
     47          6           0        1.173794   -3.025628    1.851477
     48          6           0        1.575424   -1.720323    2.129299
     49          1           0        2.084595   -1.463441    3.056468
     50          6           0        1.383829   -0.723713    1.158593
     51          6           0        1.994255    0.588805    1.113122
     52          6           0        2.581559    1.325213    2.139115
     53          6           0        3.152486    2.564896    1.874785
     54          6           0        3.128164    3.081987    0.576871
     55          6           0        2.526815    2.374984   -0.464090
     56          6           0        1.990021    1.112717   -0.205873
     57          7           0        1.309388    0.297393   -1.128337
     58         16           0        2.080975   -0.342389   -2.489586
     59          8           0        1.071763   -1.145336   -3.153612
     60          8           0        2.802712    0.710294   -3.178224
     61          6           0        3.349434   -1.434192   -1.739117
     62         17           0        3.442044   -2.979247   -2.562066
     63          1           0        3.087511   -1.594891   -0.684613
     64          1           0        4.295203   -0.888355   -1.840857
     65          9           0        2.442991    2.950310   -1.646247
     66          9           0        3.634689    4.281635    0.349541
     67          9           0        3.704392    3.270585    2.847413
     68          9           0        2.591464    0.869447    3.388815
     69          8           0        1.292768   -4.058949    2.712282
     70          6           0        1.837895   -3.811770    3.976412
     71          1           0        1.249529   -3.063347    4.537304
     72          1           0        2.883479   -3.460656    3.913175
     73          1           0        1.816991   -4.763448    4.522305
 ---------------------------------------------------------------------
 Rotational constants (GHZ):      0.0964945      0.0686484      0.0648026
 Leave Link  202 at Fri Jun  9 11:19:03 2023, MaxMem=  4294967296 cpu:         0.1
 (Enter /cluster/apps/gaussian/g09/l301.exe)
 General basis read from cards:  (5D, 7F)
 Centers:       3      4      8     12     16     17     21     25     29     30
 Centers:      34     38     42     43     45     47     48     50     51     52
 Centers:      53     54     55     56     61     70     58     65     66     67
 Centers:      68      2     62      5      6      7      9     10     11     13
 Centers:      14     15     18     19     20     22     23     24     26     27
 Centers:      28     31     32     33     35     36     37     39     40     41
 Centers:      44     46     49     63     64     71     72     73     57     59
 Centers:      60     69
 def2svp
 ****
 Centers:       1
 def2tzvp
 ****
 ======================================================================================================
                                       Pseudopotential Parameters
 ======================================================================================================
  Center     Atomic      Valence      Angular      Power
  Number     Number     Electrons     Momentum     of R      Exponent        Coefficient   SO-Coeffient
 ======================================================================================================
    1         46           18
                                      G and up 
                                                     2        1.0000000        0.00000000    0.00000000
                                      S - G
                                                     2       12.4300000      240.22904000    0.00000000
                                                     2        6.1707590       35.17194300    0.00000000
                                      P - G
                                                     2       11.0800000      170.41727600    0.00000000
                                                     2        5.8295540       28.47213300    0.00000000
                                      D - G
                                                     2        9.5100000       69.01384500    0.00000000
                                                     2        4.1397810       11.75086200    0.00000000
                                      F - G
                                                     2       13.2700000      -31.92955400    0.00000000
                                                     2        6.6300000       -5.39821700    0.00000000
    2         15
                                   No pseudopotential on this center.
    3          6
                                   No pseudopotential on this center.
    4          6
                                   No pseudopotential on this center.
    5          1
                                   No pseudopotential on this center.
    6          1
                                   No pseudopotential on this center.
    7          1
                                   No pseudopotential on this center.
    8          6
                                   No pseudopotential on this center.
    9          1
                                   No pseudopotential on this center.
   10          1
                                   No pseudopotential on this center.
   11          1
                                   No pseudopotential on this center.
   12          6
                                   No pseudopotential on this center.
   13          1
                                   No pseudopotential on this center.
   14          1
                                   No pseudopotential on this center.
   15          1
                                   No pseudopotential on this center.
   16          6
                                   No pseudopotential on this center.
   17          6
                                   No pseudopotential on this center.
   18          1
                                   No pseudopotential on this center.
   19          1
                                   No pseudopotential on this center.
   20          1
                                   No pseudopotential on this center.
   21          6
                                   No pseudopotential on this center.
   22          1
                                   No pseudopotential on this center.
   23          1
                                   No pseudopotential on this center.
   24          1
                                   No pseudopotential on this center.
   25          6
                                   No pseudopotential on this center.
   26          1
                                   No pseudopotential on this center.
   27          1
                                   No pseudopotential on this center.
   28          1
                                   No pseudopotential on this center.
   29          6
                                   No pseudopotential on this center.
   30          6
                                   No pseudopotential on this center.
   31          1
                                   No pseudopotential on this center.
   32          1
                                   No pseudopotential on this center.
   33          1
                                   No pseudopotential on this center.
   34          6
                                   No pseudopotential on this center.
   35          1
                                   No pseudopotential on this center.
   36          1
                                   No pseudopotential on this center.
   37          1
                                   No pseudopotential on this center.
   38          6
                                   No pseudopotential on this center.
   39          1
                                   No pseudopotential on this center.
   40          1
                                   No pseudopotential on this center.
   41          1
                                   No pseudopotential on this center.
   42          6
                                   No pseudopotential on this center.
   43          6
                                   No pseudopotential on this center.
   44          1
                                   No pseudopotential on this center.
   45          6
                                   No pseudopotential on this center.
   46          1
                                   No pseudopotential on this center.
   47          6
                                   No pseudopotential on this center.
   48          6
                                   No pseudopotential on this center.
   49          1
                                   No pseudopotential on this center.
   50          6
                                   No pseudopotential on this center.
   51          6
                                   No pseudopotential on this center.
   52          6
                                   No pseudopotential on this center.
   53          6
                                   No pseudopotential on this center.
   54          6
                                   No pseudopotential on this center.
   55          6
                                   No pseudopotential on this center.
   56          6
                                   No pseudopotential on this center.
   57          7
                                   No pseudopotential on this center.
   58         16
                                   No pseudopotential on this center.
   59          8
                                   No pseudopotential on this center.
   60          8
                                   No pseudopotential on this center.
   61          6
                                   No pseudopotential on this center.
   62         17
                                   No pseudopotential on this center.
   63          1
                                   No pseudopotential on this center.
   64          1
                                   No pseudopotential on this center.
   65          9
                                   No pseudopotential on this center.
   66          9
                                   No pseudopotential on this center.
   67          9
                                   No pseudopotential on this center.
   68          9
                                   No pseudopotential on this center.
   69          8
                                   No pseudopotential on this center.
   70          6
                                   No pseudopotential on this center.
   71          1
                                   No pseudopotential on this center.
   72          1
                                   No pseudopotential on this center.
   73          1
                                   No pseudopotential on this center.
 ======================================================================================================
 Ernie: Thresh=  0.10000D-02 Tol=  0.10000D-05 Strict=F.
 There are   788 symmetry adapted cartesian basis functions of A   symmetry.
 There are   745 symmetry adapted basis functions of A   symmetry.
   745 basis functions,  1280 primitive gaussians,   788 cartesian basis functions
   162 alpha electrons      162 beta electrons
       nuclear repulsion energy      6132.2945160443 Hartrees.
 IExCor= 1009 DFT=T Ex+Corr=PBE1PBE ExCW=0 ScaHFX=  0.250000
 ScaDFX=  0.750000  0.750000  1.000000  1.000000 ScalE2=  1.000000  1.000000
 IRadAn=      5 IRanWt=     -1 IRanGd=            0 ICorTp=0 IEmpDi=141
 NAtoms=   73 NActive=   73 NUniq=   73 SFac= 1.00D+00 NAtFMM=   60 NAOKFM=T Big=T
 Integral buffers will be    131072 words long.
 Raffenetti 2 integral format.
 Two-electron integral symmetry is turned on.
 R6Disp:  Grimme-D3(BJ) Dispersion energy=       -0.1203670240 Hartrees.
 Nuclear repulsion after empirical dispersion term =     6132.1741490203 Hartrees.
 Leave Link  301 at Fri Jun  9 11:19:03 2023, MaxMem=  4294967296 cpu:         1.1
 (Enter /cluster/apps/gaussian/g09/l302.exe)
 NPDir=0 NMtPBC=     1 NCelOv=     1 NCel=       1 NClECP=     1 NCelD=      1
         NCelK=      1 NCelE2=     1 NClLst=     1 CellRange=     0.0.
 One-electron integrals computed using PRISM.
   1 Symmetry operations used in ECPInt.
 ECPInt:  NShTT=   60378 NPrTT=  217440 LenC2=   50676 LenP2D=  118317.
 LDataN:  DoStor=T MaxTD1= 7 Len=  274
 NBasis=   745 RedAO= T EigKep=  1.17D-04  NBF=   745
 NBsUse=   745 1.00D-06 EigRej= -1.00D+00 NBFU=   745
 Precomputing XC quadrature grid using
 IXCGrd= 4 IRadAn=           5 IRanWt=          -1 IRanGd=           0 AccXCQ= 0.00D+00.
 Defaulting to unpruned grid for atomic number  46.
 Generated NRdTot=       0 NPtTot=           0 NUsed=           0 NTot=          32
 NSgBfM=   727   737   743   743   743 MxSgAt=    73 MxSgA2=    73.
 Leave Link  302 at Fri Jun  9 11:19:06 2023, MaxMem=  4294967296 cpu:        43.7
 (Enter /cluster/apps/gaussian/g09/l303.exe)
 DipDrv:  MaxL=1.
 Leave Link  303 at Fri Jun  9 11:19:06 2023, MaxMem=  4294967296 cpu:         3.1
 (Enter /cluster/apps/gaussian/g09/l401.exe)
 ExpMin= 3.70D-02 ExpMax= 1.04D+04 ExpMxC= 1.57D+03 IAcc=3 IRadAn=         5 AccDes= 0.00D+00
 Harris functional with IExCor= 1009 and IRadAn=       5 diagonalized for initial guess.
 HarFok:  IExCor= 1009 AccDes= 0.00D+00 IRadAn=         5 IDoV= 1 UseB2=F ITyADJ=14
 ICtDFT=  3500011 ScaDFX=  1.000000  1.000000  1.000000  1.000000
 Defaulting to unpruned grid for atomic number  46.
 Defaulting to unpruned grid for atomic number  46.
 Defaulting to unpruned grid for atomic number  46.
 Defaulting to unpruned grid for atomic number  46.
 Defaulting to unpruned grid for atomic number  46.
 Defaulting to unpruned grid for atomic number  46.
 Defaulting to unpruned grid for atomic number  46.
 Defaulting to unpruned grid for atomic number  46.
 Defaulting to unpruned grid for atomic number  46.
 Defaulting to unpruned grid for atomic number  46.
 Defaulting to unpruned grid for atomic number  46.
 Defaulting to unpruned grid for atomic number  46.
 Defaulting to unpruned grid for atomic number  46.
 Defaulting to unpruned grid for atomic number  46.
 Defaulting to unpruned grid for atomic number  46.
 Defaulting to unpruned grid for atomic number  46.
 FoFCou: FMM=F IPFlag=           0 FMFlag=      100000 FMFlg1=        2001
         NFxFlg=           0 DoJE=T BraDBF=F KetDBF=T FulRan=T
         wScrn=  0.000000 ICntrl=     500 IOpCl=  0 I1Cent=   200000004 NGrid=           0
         NMat0=    1 NMatS0=      1 NMatT0=    0 NMatD0=    1 NMtDS0=    0 NMtDT0=    0
 Petite list used in FoFCou.
 Harris En= -3015.87827536398    
 JPrj=0 DoOrth=F DoCkMO=F.
 Leave Link  401 at Fri Jun  9 11:19:15 2023, MaxMem=  4294967296 cpu:       136.2
 (Enter /cluster/apps/gaussian/g09/l502.exe)
 Closed shell SCF:
 Using DIIS extrapolation, IDIIS=  1040.
 Integral symmetry usage will be decided dynamically.
 IVT=     1899956 IEndB=     1899956 NGot=  4294967296 MDV=  4293705713
 LenX=  4293705713 LenY=  4293083981
 Requested convergence on RMS density matrix=1.00D-08 within 128 cycles.
 Requested convergence on MAX density matrix=1.00D-06.
 Requested convergence on             energy=1.00D-06.
 No special actions if energy rises.
 Fock matrices will be formed incrementally for  20 cycles.

 Cycle   1  Pass 1  IDiag  1:
 FoFJK:  IHMeth= 1 ICntrl=       0 DoSepK=F KAlg= 0 I1Cent=   0 FoldK=F
 IRaf= 920000000 NMat=   1 IRICut=       1 DoRegI=T DoRafI=F ISym2E= 0.
 FoFCou: FMM=T IPFlag=           0 FMFlag=      100000 FMFlg1=        2001
         NFxFlg=           0 DoJE=F BraDBF=F KetDBF=F FulRan=T
         wScrn=  0.000000 ICntrl=       0 IOpCl=  0 I1Cent=           0 NGrid=           0
         NMat0=    1 NMatS0=      1 NMatT0=    0 NMatD0=    1 NMtDS0=    0 NMtDT0=    0
 Symmetry not used in FoFCou.
 FMM levels:  10  Number of levels for PrismC:   9
 Defaulting to unpruned grid for atomic number  46.
 Defaulting to unpruned grid for atomic number  46.
 Defaulting to unpruned grid for atomic number  46.
 Defaulting to unpruned grid for atomic number  46.
 Defaulting to unpruned grid for atomic number  46.
 Defaulting to unpruned grid for atomic number  46.
 Defaulting to unpruned grid for atomic number  46.
 Defaulting to unpruned grid for atomic number  46.
 Defaulting to unpruned grid for atomic number  46.
 Defaulting to unpruned grid for atomic number  46.
 Defaulting to unpruned grid for atomic number  46.
 Defaulting to unpruned grid for atomic number  46.
 Defaulting to unpruned grid for atomic number  46.
 Defaulting to unpruned grid for atomic number  46.
 Defaulting to unpruned grid for atomic number  46.
 Defaulting to unpruned grid for atomic number  46.
 E= -3012.53337950247    
 DIIS: error= 5.41D-02 at cycle   1 NSaved=   1.
 NSaved= 1 IEnMin= 1 EnMin= -3012.53337950247     IErMin= 1 ErrMin= 5.41D-02
 ErrMax= 5.41D-02  0.00D+00 EMaxC= 1.00D-01 BMatC= 3.22D+00 BMatP= 3.22D+00
 IDIUse=3 WtCom= 4.59D-01 WtEn= 5.41D-01
 Coeff-Com:  0.100D+01
 Coeff-En:   0.100D+01
 Coeff:      0.100D+01
 Gap=     0.384 Goal=   None    Shift=    0.000
 GapD=    0.384 DampG=1.000 DampE=0.250 DampFc=0.2500 IDamp=-1.
 Damping current iteration by 2.50D-01
 RMSDP=1.39D-02 MaxDP=5.01D+00              OVMax= 7.48D-01

 Cycle   2  Pass 1  IDiag  1:
 RMSU=  3.48D-03    CP:  9.95D-01
 E= -3013.12325538179     Delta-E=       -0.589875879319 Rises=F Damp=T
 DIIS: error= 1.13D-02 at cycle   2 NSaved=   2.
 NSaved= 2 IEnMin= 2 EnMin= -3013.12325538179     IErMin= 2 ErrMin= 1.13D-02
 ErrMax= 1.13D-02  0.00D+00 EMaxC= 1.00D-01 BMatC= 3.59D-01 BMatP= 3.22D+00
 IDIUse=3 WtCom= 8.87D-01 WtEn= 1.13D-01
 Coeff-Com: -0.727D-01 0.107D+01
 Coeff-En:   0.349D+00 0.651D+00
 Coeff:     -0.251D-01 0.103D+01
 Gap=     0.648 Goal=   None    Shift=    0.000
 RMSDP=4.51D-03 MaxDP=1.10D+00 DE=-5.90D-01 OVMax= 6.96D-01

 Cycle   3  Pass 1  IDiag  1:
 RMSU=  3.46D-03    CP:  9.67D-01  1.78D-01
 E= -3013.64427753826     Delta-E=       -0.521022156465 Rises=F Damp=F
 DIIS: error= 3.51D-02 at cycle   3 NSaved=   3.
 NSaved= 3 IEnMin= 3 EnMin= -3013.64427753826     IErMin= 2 ErrMin= 1.13D-02
 ErrMax= 3.51D-02  0.00D+00 EMaxC= 1.00D-01 BMatC= 1.57D+00 BMatP= 3.59D-01
 IDIUse=2 WtCom= 0.00D+00 WtEn= 1.00D+00
 EnCoef did     3 forward-backward iterations
 Coeff-En:   0.166D+00 0.270D+00 0.564D+00
 Coeff:      0.166D+00 0.270D+00 0.564D+00
 Gap=     0.346 Goal=   None    Shift=    0.000
 RMSDP=6.78D-03 MaxDP=5.26D-01 DE=-5.21D-01 OVMax= 9.74D-01

 Cycle   4  Pass 1  IDiag  1:
 RMSU=  5.46D-03    CP:  9.77D-01  9.07D-01  1.00D-01
 E= -3007.16994009125     Delta-E=        6.474337447005 Rises=F Damp=F
 DIIS: error= 4.67D-02 at cycle   4 NSaved=   4.
 NSaved= 4 IEnMin= 3 EnMin= -3013.64427753826     IErMin= 2 ErrMin= 1.13D-02
 ErrMax= 4.67D-02  0.00D+00 EMaxC= 1.00D-01 BMatC= 5.23D+00 BMatP= 3.59D-01
 IDIUse=2 WtCom= 0.00D+00 WtEn= 1.00D+00
 EnCoef did     2 forward-backward iterations
 Coeff-En:   0.237D+00 0.000D+00 0.557D+00 0.206D+00
 Coeff:      0.237D+00 0.000D+00 0.557D+00 0.206D+00
 Gap=     0.203 Goal=   None    Shift=    0.000
 RMSDP=5.36D-03 MaxDP=5.65D-01 DE= 6.47D+00 OVMax= 8.76D-01

 Cycle   5  Pass 1  IDiag  1:
 RMSU=  2.14D-03    CP:  9.65D-01  2.80D-01  3.48D-01  2.09D-01
 E= -3015.13921179285     Delta-E=       -7.969271701602 Rises=F Damp=F
 DIIS: error= 9.93D-03 at cycle   5 NSaved=   5.
 NSaved= 5 IEnMin= 5 EnMin= -3015.13921179285     IErMin= 5 ErrMin= 9.93D-03
 ErrMax= 9.93D-03  0.00D+00 EMaxC= 1.00D-01 BMatC= 2.20D-01 BMatP= 3.59D-01
 IDIUse=3 WtCom= 9.01D-01 WtEn= 9.93D-02
 Coeff-Com:  0.345D-01 0.163D+00 0.219D+00-0.282D-01 0.611D+00
 Coeff-En:   0.000D+00 0.000D+00 0.134D+00 0.000D+00 0.866D+00
 Coeff:      0.311D-01 0.147D+00 0.211D+00-0.254D-01 0.637D+00
 Gap=     0.160 Goal=   None    Shift=    0.000
 RMSDP=1.37D-03 MaxDP=7.34D-02 DE=-7.97D+00 OVMax= 2.08D-01

 Cycle   6  Pass 1  IDiag  1:
 RMSU=  9.28D-04    CP:  9.70D-01  1.91D-01  4.72D-01  1.29D-01  6.60D-01
 E= -3015.33969140007     Delta-E=       -0.200479607212 Rises=F Damp=F
 DIIS: error= 8.03D-03 at cycle   6 NSaved=   6.
 NSaved= 6 IEnMin= 6 EnMin= -3015.33969140007     IErMin= 6 ErrMin= 8.03D-03
 ErrMax= 8.03D-03  0.00D+00 EMaxC= 1.00D-01 BMatC= 5.19D-02 BMatP= 2.20D-01
 IDIUse=3 WtCom= 9.20D-01 WtEn= 8.03D-02
 Coeff-Com:  0.694D-02 0.634D-01 0.959D-01-0.333D-01 0.400D+00 0.467D+00
 Coeff-En:   0.000D+00 0.000D+00 0.000D+00 0.000D+00 0.102D+00 0.898D+00
 Coeff:      0.638D-02 0.584D-01 0.882D-01-0.307D-01 0.376D+00 0.502D+00
 Gap=     0.141 Goal=   None    Shift=    0.000
 RMSDP=6.64D-04 MaxDP=6.14D-02 DE=-2.00D-01 OVMax= 7.93D-02

 Cycle   7  Pass 1  IDiag  1:
 RMSU=  3.86D-04    CP:  9.65D-01  1.99D-01  4.57D-01  1.32D-01  7.72D-01
                    CP:  4.87D-01
 E= -3015.38011524647     Delta-E=       -0.040423846405 Rises=F Damp=F
 DIIS: error= 2.62D-03 at cycle   7 NSaved=   7.
 NSaved= 7 IEnMin= 7 EnMin= -3015.38011524647     IErMin= 7 ErrMin= 2.62D-03
 ErrMax= 2.62D-03  0.00D+00 EMaxC= 1.00D-01 BMatC= 9.42D-03 BMatP= 5.19D-02
 IDIUse=3 WtCom= 9.74D-01 WtEn= 2.62D-02
 Coeff-Com:  0.111D-01-0.735D-02 0.672D-02-0.705D-02 0.610D-01 0.289D+00
 Coeff-Com:  0.647D+00
 Coeff-En:   0.000D+00 0.000D+00 0.000D+00 0.000D+00 0.000D+00 0.177D+00
 Coeff-En:   0.823D+00
 Coeff:      0.108D-01-0.715D-02 0.655D-02-0.686D-02 0.594D-01 0.286D+00
 Coeff:      0.651D+00
 Gap=     0.138 Goal=   None    Shift=    0.000
 RMSDP=2.72D-04 MaxDP=1.95D-02 DE=-4.04D-02 OVMax= 4.42D-02

 Cycle   8  Pass 1  IDiag  1:
 RMSU=  1.68D-04    CP:  9.67D-01  1.93D-01  4.59D-01  1.30D-01  7.32D-01
                    CP:  6.54D-01  6.99D-01
 E= -3015.38745077878     Delta-E=       -0.007335532306 Rises=F Damp=F
 DIIS: error= 7.43D-04 at cycle   8 NSaved=   8.
 NSaved= 8 IEnMin= 8 EnMin= -3015.38745077878     IErMin= 8 ErrMin= 7.43D-04
 ErrMax= 7.43D-04  0.00D+00 EMaxC= 1.00D-01 BMatC= 2.30D-03 BMatP= 9.42D-03
 IDIUse=3 WtCom= 9.93D-01 WtEn= 7.43D-03
 Coeff-Com:  0.228D-02 0.403D-03-0.283D-02-0.683D-03-0.181D-01 0.129D+00
 Coeff-Com:  0.434D+00 0.456D+00
 Coeff-En:   0.000D+00 0.000D+00 0.000D+00 0.000D+00 0.000D+00 0.000D+00
 Coeff-En:   0.172D+00 0.828D+00
 Coeff:      0.226D-02 0.400D-03-0.281D-02-0.678D-03-0.179D-01 0.128D+00
 Coeff:      0.432D+00 0.458D+00
 Gap=     0.138 Goal=   None    Shift=    0.000
 RMSDP=9.35D-05 MaxDP=6.50D-03 DE=-7.34D-03 OVMax= 1.02D-02

 Cycle   9  Pass 1  IDiag  1:
 RMSU=  4.44D-05    CP:  9.66D-01  1.90D-01  4.62D-01  1.27D-01  7.32D-01
                    CP:  6.39D-01  8.14D-01  6.18D-01
 E= -3015.38941738449     Delta-E=       -0.001966605716 Rises=F Damp=F
 DIIS: error= 2.56D-04 at cycle   9 NSaved=   9.
 NSaved= 9 IEnMin= 9 EnMin= -3015.38941738449     IErMin= 9 ErrMin= 2.56D-04
 ErrMax= 2.56D-04  0.00D+00 EMaxC= 1.00D-01 BMatC= 9.89D-05 BMatP= 2.30D-03
 IDIUse=3 WtCom= 9.97D-01 WtEn= 2.56D-03
 Coeff-Com: -0.908D-04 0.683D-03-0.180D-02 0.372D-03-0.112D-01 0.540D-01
 Coeff-Com:  0.189D+00 0.238D+00 0.530D+00
 Coeff-En:   0.000D+00 0.000D+00 0.000D+00 0.000D+00 0.000D+00 0.000D+00
 Coeff-En:   0.000D+00 0.000D+00 0.100D+01
 Coeff:     -0.905D-04 0.681D-03-0.179D-02 0.371D-03-0.112D-01 0.539D-01
 Coeff:      0.189D+00 0.238D+00 0.532D+00
 Gap=     0.138 Goal=   None    Shift=    0.000
 RMSDP=2.41D-05 MaxDP=1.58D-03 DE=-1.97D-03 OVMax= 2.88D-03

 Cycle  10  Pass 1  IDiag  1:
 RMSU=  1.83D-05    CP:  9.66D-01  1.91D-01  4.62D-01  1.28D-01  7.32D-01
                    CP:  6.47D-01  8.09D-01  6.26D-01  7.34D-01
 E= -3015.38948341224     Delta-E=       -0.000066027744 Rises=F Damp=F
 DIIS: error= 9.54D-05 at cycle  10 NSaved=  10.
 NSaved=10 IEnMin=10 EnMin= -3015.38948341224     IErMin=10 ErrMin= 9.54D-05
 ErrMax= 9.54D-05  0.00D+00 EMaxC= 1.00D-01 BMatC= 2.58D-05 BMatP= 9.89D-05
 IDIUse=1 WtCom= 1.00D+00 WtEn= 0.00D+00
 Coeff-Com: -0.981D-03 0.148D-02-0.540D-03 0.145D-03-0.228D-02 0.205D-01
 Coeff-Com:  0.632D-01 0.792D-01 0.335D+00 0.505D+00
 Coeff:     -0.981D-03 0.148D-02-0.540D-03 0.145D-03-0.228D-02 0.205D-01
 Coeff:      0.632D-01 0.792D-01 0.335D+00 0.505D+00
 Gap=     0.138 Goal=   None    Shift=    0.000
 RMSDP=1.11D-05 MaxDP=6.78D-04 DE=-6.60D-05 OVMax= 1.60D-03

 Cycle  11  Pass 1  IDiag  1:
 RMSU=  8.04D-06    CP:  9.66D-01  1.91D-01  4.62D-01  1.28D-01  7.34D-01
                    CP:  6.45D-01  8.10D-01  6.19D-01  7.91D-01  7.39D-01
 E= -3015.38950823415     Delta-E=       -0.000024821915 Rises=F Damp=F
 DIIS: error= 3.26D-05 at cycle  11 NSaved=  11.
 NSaved=11 IEnMin=11 EnMin= -3015.38950823415     IErMin=11 ErrMin= 3.26D-05
[...]
 .00000858,0.00000648,0.00000300,-0.00000211,-0.00000570,0.00001633,0.0
 0000812,-0.00001002,-0.00000584,-0.00001437,0.00002891,0.00000988,0.00
 003549,-0.00000940,0.00002198,-0.00001073,-0.00000105,-0.00000241,-0.0
 0000609,0.00000722,0.00002006,0.00001873,0.00000110,-0.00000506,-0.000
 00102,0.00000021,-0.00001195,-0.00002172,0.00000584,-0.00002772,-0.000
 01504,0.00000727,0.00002588,0.00003131,0.00000404,0.00000449,-0.000001
 20,-0.00001524,-0.00003554,-0.00002814,-0.00000909,-0.00005456,-0.0000
 2821,0.00003507,0.00003877,0.00006267,-0.00000424,0.00000649,-0.000002
 35,-0.00022239,0.00022236,-0.00032193,-0.00002039,-0.00006711,0.000375
 50,-0.00001478,-0.00004760,-0.00000730,0.00023376,-0.00068622,0.000044
 85,-0.00018388,0.00007645,0.00002147,-0.00019427,0.00510918,-0.0007571
 9,0.00069720,-0.00030157,0.00009779,-0.00010499,0.00044178,0.00047479,
 -0.00046401,-0.00003049,-0.00007775,0.00009989,-0.00001989,0.00002874,
 0.00000312,-0.00027200,-0.00003520,0.00006532,-0.00000054,-0.00006191,
 0.00004203,0.00000648,-0.00004832,-0.00001015,0.00002219,-0.00000699,0
 .00008221,-0.00009505,-0.00007431,-0.00005973,-0.00021144,0.00015332,0
 .00006982,0.00015918,0.00011647,-0.00001109,-0.00003595,-0.00002142,-0
 .00004584,-0.00005840,-0.00000512,0.00002742,0.00001667,0.00001142,-0.
 00001593,-0.00001278,-0.00002169,0.00000326,0.00002244,0.00000376,0.00
 000431,-0.00000247,-0.00000450,-0.00001154,-0.00000607,0.00001154,-0.0
 0004061,-0.00002940,0.00004501,-0.00007053,0.00004462,0.00007430,-0.00
 001944,0.00020575,0.00002296,0.00793629,-0.01439941,-0.01311449,-0.070
 93209,-0.03596632,-0.28182329,0.06820622,0.04751423,0.30669470,-0.0001
 0936,0.00001861,-0.00005894,0.00010207,0.00010869,0.00003062,-0.000035
 46,-0.00001478,0.00000233,0.00001096,0.00001285,-0.00003004,0.00000117
 ,-0.00000368,0.00000320,-0.00001514,0.00000383,-0.00001464,-0.00001837
 ,-0.00001854,0.00001000,0.00000951,0.00001329,-0.00002256,0.00000019,-
 0.00000051,0.00000426,-0.00000976,0.00000396,-0.00000867,-0.00000012,-
 0.00000416,0.00000189,-0.00000728,0.00000754,-0.00000257,-0.00000132,0
 .00000579,-0.00000630,-0.00000195,-0.00000431,0.00000034,-0.00000455,-
 0.00000075,0.00001120,-0.00000887,-0.00000873,-0.00002016,-0.00000905,
 0.00000547,0.00001245,0.00000038,0.00000208,-0.00000392,-0.00000884,-0
 .00000251,0.00000345,0.00000524,0.00000065,0.00000089,-0.00000452,-0.0
 0000268,0.00000211,0.00000631,-0.00000812,-0.00000645,-0.00000648,-0.0
 0000192,0.00000404,-0.00000159,0.00000229,-0.00000438,-0.00000036,-0.0
 0000564,-0.00000335,-0.00000853,0.00000018,0.00000271,0.00000386,-0.00
 000396,-0.00000788,0.00000730,0.00000165,0.00000241,-0.00002658,0.0000
 0017,0.00000231,0.00001149,-0.00000307,-0.00000532,-0.00000301,0.00000
 437,-0.00000687,-0.00000090,-0.00000684,0.00000053,-0.00000132,0.00000
 138,0.00000252,0.00000359,-0.00000345,-0.00000838,-0.00000794,0.000004
 96,0.00001963,-0.00000419,-0.00000753,0.00000789,-0.00000292,0.0000063
 1,-0.00000640,0.00001016,0.00001235,-0.00001000,0.00000430,-0.00001941
 ,0.00000041,0.00000849,0.00000524,0.00001792,-0.00000210,0.00000098,-0
 .00000122,0.00029188,-0.00030665,-0.00009295,0.00016900,-0.00018975,0.
 00010086,-0.00001553,0.00003638,-0.00001093,-0.00040321,0.00135459,0.0
 0003347,0.00002096,-0.00016779,-0.00016081,0.00102118,-0.00673730,0.00
 269694,-0.00005592,0.00008627,0.00025867,0.00026025,0.00025986,-0.0007
 2313,0.00021665,0.00023956,-0.00035962,-0.00016876,-0.00003309,0.00010
 720,0.00001499,0.00033406,0.00000961,-0.00007241,-0.00001488,0.0000638
 4,-0.00003997,0.00000828,0.00004998,0.00000857,-0.00002512,-0.00000108
 ,-0.00006908,0.00015600,0.00007507,0.00012251,0.00016200,-0.00006720,-
 0.00017826,-0.00011484,-0.00026185,0.00007010,0.00001601,0.00004932,0.
 00006972,0.00003521,0.00004840,-0.00001413,-0.00002395,-0.00001513,0.0
 0003370,0.00000663,0.00004829,-0.00003434,-0.00000350,-0.00000536,-0.0
 0000225,0.00001835,-0.00000689,0.00001366,-0.00000146,-0.00000715,0.00
 004609,0.00003588,-0.00005428,0.00007072,-0.00004475,-0.00006990,0.000
 03769,-0.00027037,-0.00000718,-0.02537112,0.01129933,0.00664035,-0.277
 84632,-0.08089873,-0.01567241,-0.00558413,-0.00400714,0.00039374,0.308
 09106,-0.00000907,0.00002174,-0.00000609,-0.00000863,-0.00000926,-0.00
 001592,0.00000043,0.00000435,0.00000584,0.00000057,0.00000361,-0.00000
 690,-0.00000038,-0.00000037,0.00000049,-0.00000235,0.00000143,-0.00000
 181,-0.00000231,-0.00000261,0.00000144,0.00000047,0.00000007,-0.000002
 07,0.00000036,-0.00000031,0.00000037,-0.00000053,0.00000074,-0.0000008
 9,0.00000048,-0.00000021,0.00000111,-0.00000214,0.00000023,-0.00000113
 ,-0.00000056,0.00000133,-0.00000089,-0.00000020,-0.00000032,0.00000109
 ,-0.00000053,0.00000008,0.00000183,-0.00000068,0.00000157,-0.00000214,
 0.00000043,-0.00000278,0.00000033,0.00000043,0.00000071,0.00000011,-0.
 00000009,0.00000006,0.00000050,0.00000056,0.00000172,0.00000031,-0.000
 00047,-0.00000057,0.00000190,0.00000097,0.00000043,-0.00000065,-0.0000
 0093,-0.00000012,0.00000004,0.00000002,-0.00000003,-0.00000037,0.00000
 172,-0.00000055,0.00000358,-0.00000037,-0.00000034,-0.00000014,-0.0000
 0004,0.00000371,-0.00000116,-0.00000379,-0.00000142,-0.00000408,-0.000
 00141,0.00000904,0.00001272,0.00000383,-0.00000085,-0.00000467,-0.0000
 0080,0.00000172,-0.00000243,-0.00000074,0.00000218,0.00000433,0.000001
 81,-0.00000071,0.00000096,0.00000028,-0.00000760,-0.00000487,-0.000008
 61,0.00000008,-0.00000822,-0.00000097,0.00000162,0.00000611,0.00000187
 ,0.00000452,-0.00000054,-0.00000056,-0.00001210,-0.00001065,0.00000106
 ,-0.00000687,-0.00000566,0.00000154,0.00000669,0.00001693,0.00000122,-
 0.00000012,-0.00000125,-0.00063794,0.00019444,0.00064743,-0.00004212,0
 .00064820,-0.00077425,0.00003122,0.00000535,0.00000275,0.00031849,-0.0
 0154006,-0.00046507,0.00003848,0.00009813,0.00011935,0.00106165,0.0058
 9063,-0.00150321,-0.00075240,0.00060322,0.00090677,0.00102356,-0.00062
 535,0.00108756,0.00000598,-0.00108103,-0.00028234,0.00015182,0.0000942
 4,-0.00005975,-0.00004239,-0.00002183,0.00001812,-0.00000346,0.0000280
 6,-0.00001019,0.00000587,-0.00001088,-0.00001385,-0.00000288,0.0000196
 6,-0.00000039,-0.00000579,-0.00005111,-0.00001278,0.00005097,-0.000084
 76,0.00003254,-0.00000204,-0.00000037,0.00005333,0.00001200,0.00000225
 ,-0.00001140,-0.00000095,-0.00000047,-0.00001301,0.00000122,0.00000378
 ,-0.00000283,0.00000054,0.00000258,0.00000205,0.00000433,0.00000737,-0
 .00000335,0.00000179,-0.00000307,0.00000412,-0.00000012,-0.00001609,0.
 00000083,-0.00001042,-0.00001493,0.00001659,0.00000457,-0.00000608,-0.
 00000029,-0.00001181,0.00001519,0.00001741,0.03298932,0.00207187,-0.00
 142386,-0.08674353,-0.08082232,-0.00492862,-0.00365408,-0.00065907,0.0
 0190618,0.07941676,0.08081610,0.00012129,-0.00001999,0.00006452,-0.000
 13062,-0.00013750,-0.00006671,0.00003637,0.00002505,0.00001370,-0.0000
 1433,-0.00000638,0.00000970,-0.00000074,0.00000223,-0.00000102,0.00001
 119,0.00000157,0.00000983,0.00001512,0.00001332,-0.00000566,-0.0000068
 0,-0.00001123,0.00001668,0.00000065,-0.00000010,-0.00000276,0.00000765
 ,-0.00000142,0.00000519,0.00000235,0.00000313,0.00000137,-0.00000020,-
 0.00000499,-0.00000210,0.00000007,-0.00000089,0.00000334,0.00000318,0.
 00000390,0.00000497,0.00000292,-0.00000154,-0.00000783,0.00001613,0.00
 002342,0.00001889,0.00000908,-0.00001366,-0.00001188,0.00000022,-0.000
 00008,0.00000355,0.00000795,0.00000438,-0.00000148,-0.00000050,0.00000
 466,-0.00000047,0.00000045,0.00000058,0.00000102,-0.00000419,0.0000081
 3,0.00000501,0.00000396,0.00000247,-0.00000305,0.00000076,-0.00000071,
 0.00000250,0.00000383,-0.00000808,0.00000462,0.00000896,0.00000148,-0.
 00000106,-0.00000561,0.00001359,0.00000845,-0.00000910,-0.00000524,-0.
 00000789,0.00002362,0.00001324,0.00002644,-0.00000441,0.00001112,-0.00
 000700,-0.00000094,-0.00000118,-0.00000256,0.00000414,0.00001254,0.000
 01158,0.00000223,-0.00000214,-0.00000050,0.00000116,-0.00002168,-0.000
 02138,-0.00000034,-0.00001081,-0.00000665,0.00000306,0.00001694,0.0000
 2160,0.00000069,0.00000753,0.00000005,-0.00001140,-0.00003459,-0.00001
 991,-0.00000833,-0.00002824,-0.00001846,0.00002119,0.00002499,0.000033
 81,-0.00000191,0.00000894,-0.00000054,-0.00002809,0.00004695,-0.000219
 31,-0.00008369,-0.00021642,0.00013956,0.00001438,-0.00001049,0.0000085
 2,-0.00011103,-0.00022728,-0.00019479,0.00003867,0.00006319,0.00006485
 ,-0.00046824,0.00232360,-0.00041375,-0.00096112,-0.00062576,0.00028265
 ,-0.00024699,0.00043972,-0.00058143,0.00034068,0.00010373,-0.00001817,
 -0.00003771,-0.00005194,-0.00003150,0.00000252,0.00018719,0.00000699,0
 .00005385,-0.00004291,-0.00005123,0.00004095,0.00004966,-0.00004100,0.
 00000153,0.00006591,-0.00000400,-0.00003345,-0.00001203,0.00001040,-0.
 00001545,-0.00012641,-0.00004363,0.00010260,0.00013950,0.00021167,-0.0
 0001843,-0.00003174,-0.00005084,-0.00004271,-0.00003995,-0.00004084,0.
 00001268,0.00002065,0.00003157,-0.00002808,-0.00001277,-0.00005200,0.0
 0001891,0.00000842,0.00001608,0.00000491,-0.00000382,0.00000387,0.0000
 0047,-0.00006992,0.00000586,-0.00005054,-0.00005574,0.00005202,-0.0000
 4530,0.00001579,0.00004500,0.00001445,-0.00014674,0.00001945,0.0213088
 3,-0.00060582,0.00026979,-0.01685543,-0.00518096,-0.05092434,-0.027578
 85,-0.00933003,-0.00001332,0.00845337,0.00827102,0.04946452,-0.0000201
 6,-0.00000242,-0.00000945,0.00002653,0.00003845,0.00000847,-0.00000920
 ,-0.00000605,-0.00000431,0.00000238,0.00000118,-0.00000188,0.00000048,
 0.,-0.00000017,-0.00000260,-0.00000083,-0.00000153,-0.00000317,-0.0000
 0285,0.00000135,0.00000153,0.00000245,-0.00000386,-0.00000022,0.000000
 51,0.00000027,-0.00000207,-0.00000030,-0.00000041,-0.00000069,-0.00000
 057,-0.00000098,-0.00000048,0.00000077,0.00000001,-0.00000004,-0.00000
 036,-0.00000016,-0.00000039,-0.00000061,-0.00000165,-0.00000079,0.0000
 0056,0.00000163,-0.00000286,-0.00000756,-0.00000479,-0.00000265,0.0000
 0493,0.00000307,-0.00000007,-0.00000069,-0.00000032,-0.00000240,-0.000
 00018,0.00000006,0.00000058,-0.00000201,-0.00000118,-0.00000039,-0.000
 00050,0.00000064,0.00000027,-0.00000192,-0.00000108,-0.00000075,0.0000
 0015,0.00000058,0.00000028,-0.00000044,0.00000005,-0.00000248,0.000005
 83,-0.00000057,-0.00000264,0.00000119,0.00000075,0.00000118,-0.0000059
 8,-0.00000048,0.00000428,0.00000174,0.00000006,-0.00000668,-0.00000154
 ,-0.00000554,0.00000079,-0.00000272,0.00000226,-0.00000015,-0.00000077
 ,0.00000157,0.00000070,-0.00000291,-0.00000419,-0.00000129,0.00000184,
 -0.00000034,0.00000112,-0.00000378,0.00000108,-0.00000151,0.00000010,0
 .00000519,0.00000255,-0.00000133,0.00000013,-0.00000308,0.00000070,0.0
 0000077,0.00000198,0.00000176,0.00001071,0.00000702,0.00000218,0.00000
 178,0.00000741,-0.00000287,-0.00001153,-0.00000849,0.00000573,-0.00000
 254,0.00009420,-0.00017111,0.00000173,-0.00019737,0.00001258,0.0002206
 3,-0.00002691,0.00005782,-0.00005021,0.00017184,0.00096049,-0.00044382
 ,0.00000978,-0.00001832,0.00002406,-0.00165647,0.00184066,0.00221595,-
 0.00033792,-0.00014410,0.00088573,0.00015836,-0.00037009,-0.00051765,0
 .00030018,0.00014708,-0.00024542,-0.00003558,0.00001160,0.00003787,0.0
 0000842,0.00013556,-0.00000769,-0.00000133,-0.00001301,-0.00000156,0.0
 0000197,0.00001464,0.00000148,-0.00000333,0.00000850,-0.00000170,-0.00
 001564,0.00004475,0.00001800,0.00002231,0.00001798,-0.00004774,-0.0000
 2187,-0.00000592,-0.00001050,0.00001312,0.00000194,-0.00000203,0.00000
 660,-0.00000006,-0.00000022,-0.00000063,-0.00000285,0.00000704,0.00000
 133,-0.00000143,-0.00000229,-0.00000915,-0.00000460,0.00000165,0.00000
 084,0.00000754,-0.00000216,0.00000412,-0.00001502,-0.00000109,0.,-0.00
 000365,-0.00000134,0.00000251,-0.00000476,-0.00000364,0.00000802,-0.00
 010917,0.00001549,-0.00202440,0.02808750,-0.01098908,-0.05204597,-0.03
 666213,0.02090791,0.00140291,0.00772084,-0.00556698,-0.00058780,-0.023
 18056,0.01608751,0.05477401,0.00011204,-0.00001234,0.00005459,-0.00012
 099,-0.00010271,-0.00004781,0.00003280,0.00001805,0.00000481,-0.000011
 37,-0.00000757,0.00001484,-0.00000043,0.00000216,-0.00000165,0.0000106
 4,-0.00000100,0.00001026,0.00001418,0.00001373,-0.00000572,-0.00000728
 ,-0.00001104,0.00001696,0.00000080,-0.00000028,-0.00000331,0.00000766,
 -0.00000242,0.00000614,0.00000090,0.00000356,0.00000003,0.00000177,-0.
 00000509,-0.00000026,0.00000098,-0.00000332,0.00000402,0.00000206,0.00
 000346,0.00000177,0.00000399,0.00000002,-0.00000826,0.00001318,0.00001
 731,0.00001844,0.00000889,-0.00001104,-0.00001103,0.00000012,-0.000000
 06,0.00000346,0.00000907,0.00000199,-0.00000270,-0.00000367,0.00000246
 ,0.00000096,0.00000246,0.00000229,-0.00000171,-0.00000440,0.00000790,0
 .00000490,0.00000516,0.00000115,-0.00000385,0.00000076,-0.00000097,0.0
 0000314,0.00000329,-0.00000746,0.00000231,0.00001220,-0.00000158,-0.00
 000160,-0.00000656,0.00001498,0.00000712,-0.00001195,-0.00000659,-0.00
 000143,0.00002584,0.00000710,0.00001442,-0.00000538,0.00000725,-0.0000
 0226,0.00000068,-0.00000223,0.00000146,0.00000102,0.00000872,0.0000057
 3,0.00000344,-0.00000206,-0.00000071,-0.00000351,-0.00000916,-0.000007
 18,0.00000202,-0.00000340,-0.00001234,0.00000259,0.00000986,0.00000408
 ,0.00000426,0.00000064,0.00000288,-0.00001013,-0.00001486,-0.00001109,
 -0.00001378,-0.00000622,-0.00000756,-0.00000105,0.00000842,0.00001073,
 0.00000909,-0.00000099,0.00000362,-0.00020611,0.00019396,-0.00013280,0
 .00023545,-0.00013482,-0.00020394,-0.00000519,-0.00007654,0.00003871,0
 .00001479,-0.00093019,0.00064367,0.00000019,0.00001272,-0.00001979,0.0
 0178651,0.00098902,-0.00281966,0.00033684,0.00023092,-0.00024912,-0.00
 014500,0.00008896,-0.00010951,0.00001198,-0.00014885,0.00015370,0.0000
 5068,0.00000295,-0.00005011,0.00000963,-0.00010094,-0.00001366,0.00005
 935,-0.00002224,-0.00006637,0.00004761,0.00003252,-0.00004901,0.000001
 55,0.00005884,0.00000191,-0.00001755,-0.00005100,-0.00000362,-0.000025
 80,-0.00007129,-0.00000594,0.00008824,0.00013972,0.00014253,-0.0000227
 6,-0.00004247,-0.00003695,-0.00004117,-0.00004952,-0.00002210,0.000019
 28,0.00001923,0.00003371,-0.00002376,-0.00001598,-0.00004345,0.0000152
 7,0.00001328,0.00001350,0.00000526,-0.00000135,-0.00000130,-0.00000483
 ,-0.00004654,0.00000729,-0.00005696,-0.00005473,0.00005991,-0.00005996
 ,0.00003158,0.00006126,-0.00001528,0.00008435,0.00002792,0.00489611,-0
 .02884521,0.00856615,-0.02812226,-0.24031062,0.12545847,0.00018793,0.0
 0662731,-0.00334836,-0.00072786,-0.00558411,0.00516262,0.02161639,0.26
 804238,-0.00001895,0.00000482,-0.00000841,0.00003805,0.00001111,0.0000
 1722,-0.00000830,-0.00000392,0.00000020,0.00000241,0.00000132,-0.00000
 286,-0.00000009,-0.00000039,0.00000067,-0.00000180,0.00000081,-0.00000
 264,-0.00000335,-0.00000331,0.00000083,0.00000216,0.00000375,-0.000003
 72,-0.00000073,0.00000025,0.00000128,-0.00000191,0.00000116,-0.0000022
 3,0.00000016,-0.00000163,0.00000014,0.00000001,0.00000215,-0.00000031,
 -0.00000103,0.00000253,-0.00000121,0.00000088,-0.00000059,0.00000120,-
 0.00000231,-0.00000186,0.00000146,-0.00000216,-0.00000185,-0.00000685,
 -0.00000358,0.00000465,0.00000385,0.00000003,0.00000003,-0.00000164,-0
 .00000348,0.00000006,0.00000146,0.00000265,-0.00000065,-0.00000068,-0.
 00000276,-0.00000190,0.00000215,0.00000113,-0.00000272,-0.00000120,-0.
 00000163,0.00000070,0.00000180,-0.00000014,0.00000043,-0.00000139,-0.0
 0000310,0.00000339,-0.00000002,-0.00000413,0.00000110,0.00000107,0.000
 00106,-0.00000583,-0.00000295,0.00000445,0.00000346,-0.00000086,-0.000
 00316,-0.00000098,-0.00000787,-0.00000316,0.00000184,0.00000449,0.0000
 0018,0.00000006,-0.00000106,0.00000341,-0.00000256,-0.00000207,-0.0000
 0460,0.00000113,-0.00000058,-0.00000065,-0.00000198,-0.00000245,-0.000
 00006,-0.00001837,-0.00000231,0.00001177,0.00000819,0.00001437,-0.0000
 0619,0.00000406,-0.00000077,-0.00000589,-0.00000249,0.00000893,0.00000
 673,-0.00000646,-0.00000692,0.00001900,0.00000768,-0.00000263,-0.00001
 188,0.00000881,-0.00000097,-0.00009396,0.00002632,0.00011126,0.0001123
 4,0.00011653,-0.00024181,-0.00002042,-0.00005370,0.00000307,0.00017302
 ,-0.00065774,0.00045074,0.00000558,0.00001910,-0.00001209,0.00182358,-
 0.00216704,-0.00061439,0.00075924,0.00038503,-0.00055772,-0.00067642,0
 .00023038,0.00013055,-0.00016876,-0.00012675,0.00038781,0.00005344,0.0
 0001347,-0.00000230,-0.00002285,-0.00014086,0.00001217,-0.00003014,0.0
 0003924,0.00002647,-0.00002041,-0.00003314,0.00001861,-0.00000508,-0.0
 0003198,-0.00000275,0.00002605,-0.00002821,-0.00001403,-0.00001233,0.0
 0006793,0.00002813,-0.00001127,-0.00006653,-0.00005691,-0.00001096,0.0
 0001472,0.00001447,0.00001104,0.00002355,0.00000892,-0.00000447,-0.000
 00156,-0.00000708,0.00000549,0.00000511,0.00000999,-0.00000395,-0.0000
 0151,-0.00000315,-0.00000236,0.00000026,-0.00000022,-0.00000157,0.0000
 3629,-0.00000334,0.00002598,0.00002836,-0.00002457,0.00002725,-0.00001
 155,-0.00002655,0.00002156,0.00011148,-0.00001652,0.00043320,-0.020314
 25,0.00947738,0.01678274,0.13589894,-0.13478375,0.00476720,0.02342231,
 -0.01190277,-0.00142833,-0.00355836,0.00196944,-0.02251344,-0.13326183
 ,0.13562441\\-0.00000107,0.00000088,-0.00000027,-0.00000035,-0.0000003
 3,0.00000035,-0.00000080,-0.00000059,0.00000015,-0.00000117,-0.0000005
 0,0.00000032,-0.00000126,-0.00000069,0.00000038,-0.00000137,-0.0000004
 8,0.00000030,-0.00000107,-0.00000010,0.00000018,-0.00000081,-0.0000009
 1,0.00000065,-0.00000075,-0.00000126,0.00000050,-0.00000112,-0.0000009
 0,0.00000052,-0.00000061,-0.00000107,0.00000043,-0.00000099,-0.0000001
 8,0.00000010,-0.00000113,-0.00000016,0.00000013,-0.00000065,-0.0000003
 8,0.00000024,-0.00000064,0.00000009,0.00000010,0.00000005,-0.00000088,
 0.00000042,0.00000005,-0.00000126,0.00000059,-0.00000014,-0.00000138,0
 .00000064,0.00000015,-0.00000156,0.00000068,0.00000043,-0.00000135,0.0
 0000051,-0.00000055,-0.00000097,0.00000058,-0.00000071,-0.00000096,0.0
 0000037,-0.00000037,-0.00000132,0.00000057,-0.00000075,-0.00000119,0.0
 0000082,0.00000027,-0.00000082,0.00000037,0.00000036,-0.00000109,0.000
 00042,-0.00000017,-0.00000090,0.00000010,0.00000046,-0.00000050,0.0000
 0035,0.00000015,-0.00000049,0.00000045,0.00000028,-0.00000050,0.000000
 29,-0.00000010,-0.00000061,0.00000017,0.00000056,-0.00000067,0.0000002
 1,0.00000020,-0.00000100,0.00000055,0.00000006,-0.00000007,-0.00000002
 ,0.00000049,0.00000065,-0.00000002,0.00000057,-0.00000007,0.00000007,-
 0.00000015,0.00000005,-0.00000027,0.00000054,-0.00000048,0.00000011,0.
 00000065,-0.00000024,0.00000020,0.00000091,-0.00000038,0.00000008,0.00
 000072,-0.00000082,0.00000032,0.00000102,0.00000017,0.00000041,0.00000
 038,-0.00000023,0.00000009,0.00000050,-0.00000031,-0.00000030,0.000000
 63,0.00000021,-0.00000019,0.00000125,0.00000005,-0.00000026,0.00000112
 ,0.00000041,-0.00000023,0.00000066,0.00000033,-0.00000010,0.00000103,0
 .00000078,-0.00000057,0.00000029,0.00000107,-0.00000035,-0.00000016,0.
 00000093,-0.00000029,0.00000010,0.00000124,-0.00000068,-0.00000025,0.0
 0000142,-0.00000069,-0.00000065,0.00000168,-0.00000064,-0.00000062,0.0
 0000122,-0.00000053,-0.00000027,0.00000139,-0.00000030,-0.00000112,-0.
 00000066,0.00000073,-0.00000048,0.00000008,0.00000080,-0.00000012,0.00
 000099,-0.00000121,-0.00000075,0.00000113,-0.00000073,-0.00000064,0.00
 000224,-0.00000085,0.00000050,0.00000026,-0.00000045,0.00000079,0.0000
 0034,-0.00000061,-0.00000013,0.00000162,-0.00000060,-0.00000109,0.0000
 0098,-0.00000040,-0.00000103,0.00000162,-0.00000068,-0.00000020,0.0000
 0168,-0.00000087,0.00000049,0.00000101,-0.00000069,0.00000153,0.000000
 62,-0.00000048,0.00000169,0.00000077,-0.00000039,0.00000161,0.00000066
 ,-0.00000047,0.00000164,0.00000103,-0.00000061,0.00000207,0.00000069,-
 0.00000048\\\@


 WHERE THERE IS MUCH DESIRE TO LEARN, THERE OF NECESSITY WILL BE
 MUCH ARGUING, MUCH WRITING, MANY OPINIONS; FOR OPINION IN GOOD MEN
 IS BUT KNOWLEDGE IN THE MAKING. -- JOHN MILTON.
 Job cpu time:       1 days  4 hours  7 minutes 56.8 seconds.
 File lengths (MBytes):  RWF=   4343 Int=      0 D2E=      0 Chk=     43 Scr=      1
 Normal termination of Gaussian 09 at Fri Jun  9 14:10:51 2023.
