 Entering Gaussian System, Link 0=g09
 Input=ts-tbu2cy-v5-released.com
 Output=ts-tbu2cy-v5-released.log
 Initial command:
 /cluster/apps/gaussian/g09/l1.exe "/cluster/scratch/sroediger/michael/newer_ts/Gau-233423.inp" -scrdir="/cluster/scratch/sroediger/michael/newer_ts/"
 Entering Link 1 = /cluster/apps/gaussian/g09/l1.exe PID=    233434.
  
 Copyright (c) 1988,1990,1992,1993,1995,1998,2003,2009,2013,
            Gaussian, Inc.  All Rights Reserved.
  
 This is part of the Gaussian(R) 09 program.  It is based on
 the Gaussian(R) 03 system (copyright 2003, Gaussian, Inc.),
 the Gaussian(R) 98 system (copyright 1998, Gaussian, Inc.),
 the Gaussian(R) 94 system (copyright 1995, Gaussian, Inc.),
 the Gaussian 92(TM) system (copyright 1992, Gaussian, Inc.),
 the Gaussian 90(TM) system (copyright 1990, Gaussian, Inc.),
 the Gaussian 88(TM) system (copyright 1988, Gaussian, Inc.),
 the Gaussian 86(TM) system (copyright 1986, Carnegie Mellon
 University), and the Gaussian 82(TM) system (copyright 1983,
 Carnegie Mellon University). Gaussian is a federally registered
 trademark of Gaussian, Inc.
  
 This software contains proprietary and confidential information,
 including trade secrets, belonging to Gaussian, Inc.
  
 This software is provided under written license and may be
 used, copied, transmitted, or stored only in accord with that
 written license.
  
 The following legend is applicable only to US Government
 contracts under FAR:
  
                    RESTRICTED RIGHTS LEGEND
  
 Use, reproduction and disclosure by the US Government is
 subject to restrictions as set forth in subparagraphs (a)
 and (c) of the Commercial Computer Software - Restricted
 Rights clause in FAR 52.227-19.
  
 Gaussian, Inc.
 340 Quinnipiac St., Bldg. 40, Wallingford CT 06492
  
  
 ---------------------------------------------------------------
 Warning -- This program may not be used in any manner that
 competes with the business of Gaussian, Inc. or will provide
 assistance to any competitor of Gaussian, Inc.  The licensee
 of this program is prohibited from giving any competitor of
 Gaussian, Inc. access to this program.  By using this program,
 the user acknowledges that Gaussian, Inc. is engaged in the
 business of creating and licensing software in the field of
 computational chemistry and represents and warrants to the
 licensee that it is not a competitor of Gaussian, Inc. and that
 it will not use this program in any manner prohibited above.
 ---------------------------------------------------------------
  

 Cite this work as:
 Gaussian 09, Revision D.01,
 M. J. Frisch, G. W. Trucks, H. B. Schlegel, G. E. Scuseria, 
 M. A. Robb, J. R. Cheeseman, G. Scalmani, V. Barone, B. Mennucci, 
 G. A. Petersson, H. Nakatsuji, M. Caricato, X. Li, H. P. Hratchian, 
 A. F. Izmaylov, J. Bloino, G. Zheng, J. L. Sonnenberg, M. Hada, 
 M. Ehara, K. Toyota, R. Fukuda, J. Hasegawa, M. Ishida, T. Nakajima, 
 Y. Honda, O. Kitao, H. Nakai, T. Vreven, J. A. Montgomery, Jr., 
 J. E. Peralta, F. Ogliaro, M. Bearpark, J. J. Heyd, E. Brothers, 
 K. N. Kudin, V. N. Staroverov, T. Keith, R. Kobayashi, J. Normand, 
 K. Raghavachari, A. Rendell, J. C. Burant, S. S. Iyengar, J. Tomasi, 
 M. Cossi, N. Rega, J. M. Millam, M. Klene, J. E. Knox, J. B. Cross, 
 V. Bakken, C. Adamo, J. Jaramillo, R. Gomperts, R. E. Stratmann, 
 O. Yazyev, A. J. Austin, R. Cammi, C. Pomelli, J. W. Ochterski, 
 R. L. Martin, K. Morokuma, V. G. Zakrzewski, G. A. Voth, 
 P. Salvador, J. J. Dannenberg, S. Dapprich, A. D. Daniels, 
 O. Farkas, J. B. Foresman, J. V. Ortiz, J. Cioslowski, 
 and D. J. Fox, Gaussian, Inc., Wallingford CT, 2013.
 
 ******************************************
 Gaussian 09:  ES64L-G09RevD.01 24-Apr-2013
                 1-Mar-2024 
 ******************************************
 %nprocshared=16
 Will use up to   16 processors via shared memory.
 %mem=32GB
 %oldchk=ts-tbu2cy-v5.chk
 %chk=ts-tbu2cy-v5-released.chk
 Copying data from "ts-tbu2cy-v5.chk" to current chk file "ts-tbu2cy-v5-released.chk".
 ----------------------------------------------------------------------
 #p opt(ts,readfc,noeigentest,nofreeze) freq=noraman geom=allcheck pbe1
 pbe genecp temperature=298 integral(grid=ultrafine) empiricaldispersio
 n=gd3bj
 ----------------------------------------------------------------------
 1/5=1,10=3,11=1,14=-1,18=20,26=4,29=2007,38=1,112=298000/1,3;
 2/9=110,12=2,40=1/2;
 3/5=7,11=2,14=-4,16=1,17=8,25=1,30=1,71=1,74=-13,75=-5,124=41/1,2,3;
 4//1;
 5/5=2,38=5/2;
 6/7=2,8=2,9=2,10=2,28=1/1;
 7//1,2,3,16;
 1/5=1,11=1,14=-1,18=20,26=4/3(2);
 2/9=110/2;
 99//99;
 2/9=110/2;
 3/5=7,6=1,11=2,14=-2,16=1,17=8,25=1,30=1,71=1,74=-13,75=-5,82=7,124=41/1,2,3;
 4/5=5,16=3,69=1/1;
 5/5=2,38=5/2;
 7//1,2,3,16;
 1/5=1,11=1,14=-1,18=20,26=4/3(-5);
 2/9=110/2;
 6/7=2,8=2,9=2,10=2,19=2,28=1/1;
 99/9=1/99;
 Leave Link    1 at Fri Mar  1 21:34:29 2024, MaxMem=  4294967296 cpu:         1.7
 (Enter /cluster/apps/gaussian/g09/l101.exe)
 Structure from the checkpoint file:  "ts-tbu2cy-v5-released.chk"
 -----
 title
 -----
 Charge =  0 Multiplicity = 1
 Redundant internal coordinates found in file.
 Pd,0,-0.1374181904,-0.9119420646,0.582962062
 C,0,1.5115073298,-0.0862553453,1.4467690236
 C,0,1.6022458131,-0.2699430894,2.8356625336
 H,0,1.1932048641,-1.1684088526,3.3008061171
 C,0,2.1583694636,0.744166105,3.6036658394
 H,0,2.1846086552,0.6692053783,4.6927848851
 C,0,2.6753357074,1.9100036478,3.0087048836
 C,0,2.7238235138,2.0162855611,1.6175347303
 H,0,3.2168730131,2.8535230867,1.1265430075
 C,0,2.1914270649,0.9850447011,0.830809357
 C,0,2.4013719703,0.7612987534,-0.5877554041
 C,0,2.7682762463,1.6736124775,-1.5707201146
 C,0,2.9524088291,1.256991538,-2.8850770998
 C,0,2.7568077407,-0.0835553401,-3.2224499951
 C,0,2.3708934619,-1.0150350473,-2.2583327265
 C,0,2.2246028622,-0.6032253498,-0.934601664
 N,0,1.7851381317,-1.4107927934,0.1299313124
 S,0,2.6282904067,-2.7409619985,0.6896424654
 O,0,1.8263459426,-3.275906352,1.7808218359
 O,0,3.0658493358,-3.5608615805,-0.4218813371
 C,0,4.1059443201,-2.0702279081,1.4875306741
 Cl,0,5.1937484369,-1.265995256,0.3633122591
 H,0,4.599915872,-2.9453978166,1.9319217764
 H,0,3.7772307964,-1.3689805566,2.2653801761
 F,0,2.1099919738,-2.2477553328,-2.6455222424
 F,0,2.8906533166,-0.4595710589,-4.4827475986
 F,0,3.287918134,2.1262000634,-3.8245945667
 F,0,2.9240746489,2.9633942057,-1.2810780744
 O,0,3.1420597136,2.849933374,3.8594967459
 C,0,3.7039401611,4.0135337755,3.3233935571
 H,0,2.9827626082,4.5650952159,2.6937423438
 H,0,4.6034433093,3.796940521,2.7198394027
 H,0,3.9916460313,4.6463954954,4.1724641414
 P,0,-2.1363350001,0.2574499637,0.6177963374
 C,0,-2.5510141037,1.2292084991,2.1629171187
 C,0,-2.0638696086,1.4403952139,-0.8689036956
 C,0,-3.5650246558,-0.9823771266,0.4744640294
 C,0,-1.2856951445,1.6747837286,2.901327327
 C,0,-3.5594290563,2.3800049814,2.0787068351
 H,0,-3.0116187551,0.4404937463,2.7873199935
 C,0,-3.4103380201,2.0047025496,-1.3208099002
 C,0,-1.115491701,2.5767752033,-0.4656514986
 C,0,-1.4059545636,0.7134647648,-2.0493847622
 C,0,-3.4890473497,-1.6794309895,-0.8847737118
 C,0,-3.2947497946,-2.0323002813,1.5612291171
 C,0,-4.9629949688,-0.4021649242,0.6857202145
 C,0,-1.6062063036,2.2411222061,4.2792007362
 H,0,-0.5960555046,0.8269937664,2.9909772767
 H,0,-0.750421192,2.4339901219,2.3068299545
 C,0,-3.8834739068,2.9210320741,3.4699870388
 H,0,-4.4843499088,2.0673190708,1.5758060925
 H,0,-3.1374282346,3.1999301425,1.4755015695
 H,0,-3.9403959879,2.5383835346,-0.5222151718
 H,0,-3.242553937,2.7211235494,-2.1424319168
 H,0,-4.0731536182,1.2187709291,-1.7102569413
 H,0,-0.914797689,3.2052135555,-1.3488923014
 H,0,-1.5340365617,3.2272074923,0.3132550212
 H,0,-0.1502473726,2.1860746751,-0.1088055166
 H,0,-0.4139721799,0.3227786042,-1.7728612421
 H,0,-1.2715419158,1.4303536263,-2.8764934046
 H,0,-2.0056646775,-0.1223895058,-2.430166707
 H,0,-3.7883746385,-1.019057757,-1.7105921626
 H,0,-2.4746377392,-2.0576747526,-1.0923162449
 H,0,-4.1735065405,-2.5435788052,-0.8893001479
 H,0,-4.0880309219,-2.7977000132,1.5343628739
 H,0,-2.325815164,-2.5334780387,1.4078989576
 H,0,-3.288700834,-1.6004907828,2.573763392
 H,0,-5.7093539797,-1.2039147732,0.5566325429
 H,0,-5.0926644945,-0.0041725581,1.7023693069
 H,0,-5.2067327942,0.3928769748,-0.0312234094
 C,0,-2.6266518979,3.3697946039,4.2055342877
 H,0,-0.6764059537,2.5846146678,4.7609494853
 H,0,-2.0063671654,1.4319542531,4.9173405526
 H,0,-4.6020956195,3.7525093441,3.3867414915
 H,0,-4.3887421821,2.1320585622,4.0566623946
 H,0,-2.8796645531,3.732063813,5.2150289309
 H,0,-2.181934584,4.2280145528,3.669533621
 Recover connectivity data from disk.
 Any frozen variables have been unfrozen.
 NAtoms=     77 NQM=       77 NQMF=       0 NMMI=      0 NMMIF=      0
                NMic=       0 NMicF=      0.
                    Isotopes and Nuclear Properties:
 (Nuclear quadrupole moments (NQMom) in fm**2, nuclear magnetic moments (NMagM)
  in nuclear magnetons)

  Atom         1           2           3           4           5           6           7           8           9          10
 IAtWgt=         106          12          12           1          12           1          12          12           1          12
 AtmWgt= 105.9032000  12.0000000  12.0000000   1.0078250  12.0000000   1.0078250  12.0000000  12.0000000   1.0078250  12.0000000
 NucSpn=           0           0           0           1           0           1           0           0           1           0
 AtZEff=-237.3600000  -3.6000000  -3.6000000  -1.0000000  -3.6000000  -1.0000000  -3.6000000  -3.6000000  -1.0000000  -3.6000000
 NQMom=    0.0000000   0.0000000   0.0000000   0.0000000   0.0000000   0.0000000   0.0000000   0.0000000   0.0000000   0.0000000
 NMagM=    0.0000000   0.0000000   0.0000000   2.7928460   0.0000000   2.7928460   0.0000000   0.0000000   2.7928460   0.0000000
 AtZNuc=  46.0000000   6.0000000   6.0000000   1.0000000   6.0000000   1.0000000   6.0000000   6.0000000   1.0000000   6.0000000

  Atom        11          12          13          14          15          16          17          18          19          20
 IAtWgt=          12          12          12          12          12          12          14          32          16          16
 AtmWgt=  12.0000000  12.0000000  12.0000000  12.0000000  12.0000000  12.0000000  14.0030740  31.9720718  15.9949146  15.9949146
 NucSpn=           0           0           0           0           0           0           2           0           0           0
 AtZEff=  -3.6000000  -3.6000000  -3.6000000  -3.6000000  -3.6000000  -3.6000000  -4.5500000 -13.6000000  -5.6000000  -5.6000000
 NQMom=    0.0000000   0.0000000   0.0000000   0.0000000   0.0000000   0.0000000   2.0440000   0.0000000   0.0000000   0.0000000
 NMagM=    0.0000000   0.0000000   0.0000000   0.0000000   0.0000000   0.0000000   0.4037610   0.0000000   0.0000000   0.0000000
 AtZNuc=   6.0000000   6.0000000   6.0000000   6.0000000   6.0000000   6.0000000   7.0000000  16.0000000   8.0000000   8.0000000

  Atom        21          22          23          24          25          26          27          28          29          30
 IAtWgt=          12          35           1           1          19          19          19          19          16          12
 AtmWgt=  12.0000000  34.9688527   1.0078250   1.0078250  18.9984033  18.9984033  18.9984033  18.9984033  15.9949146  12.0000000
 NucSpn=           0           3           1           1           1           1           1           1           0           0
 AtZEff=  -3.6000000 -14.2400000  -1.0000000  -1.0000000  -6.7500000  -6.7500000  -6.7500000  -6.7500000  -5.6000000  -3.6000000
 NQMom=    0.0000000  -8.1650000   0.0000000   0.0000000   0.0000000   0.0000000   0.0000000   0.0000000   0.0000000   0.0000000
 NMagM=    0.0000000   0.8218740   2.7928460   2.7928460   2.6288670   2.6288670   2.6288670   2.6288670   0.0000000   0.0000000
 AtZNuc=   6.0000000  17.0000000   1.0000000   1.0000000   9.0000000   9.0000000   9.0000000   9.0000000   8.0000000   6.0000000

  Atom        31          32          33          34          35          36          37          38          39          40
 IAtWgt=           1           1           1          31          12          12          12          12          12           1
 AtmWgt=   1.0078250   1.0078250   1.0078250  30.9737634  12.0000000  12.0000000  12.0000000  12.0000000  12.0000000   1.0078250
 NucSpn=           1           1           1           1           0           0           0           0           0           1
 AtZEff=  -1.0000000  -1.0000000  -1.0000000 -12.9400000  -3.6000000  -3.6000000  -3.6000000  -3.6000000  -3.6000000  -1.0000000
 NQMom=    0.0000000   0.0000000   0.0000000   0.0000000   0.0000000   0.0000000   0.0000000   0.0000000   0.0000000   0.0000000
 NMagM=    2.7928460   2.7928460   2.7928460   1.1316000   0.0000000   0.0000000   0.0000000   0.0000000   0.0000000   2.7928460
 AtZNuc=   1.0000000   1.0000000   1.0000000  15.0000000   6.0000000   6.0000000   6.0000000   6.0000000   6.0000000   1.0000000

  Atom        41          42          43          44          45          46          47          48          49          50
 IAtWgt=          12          12          12          12          12          12          12           1           1          12
 AtmWgt=  12.0000000  12.0000000  12.0000000  12.0000000  12.0000000  12.0000000  12.0000000   1.0078250   1.0078250  12.0000000
 NucSpn=           0           0           0           0           0           0           0           1           1           0
 AtZEff=  -3.6000000  -3.6000000  -3.6000000  -3.6000000  -3.6000000  -3.6000000  -3.6000000  -1.0000000  -1.0000000  -3.6000000
 NQMom=    0.0000000   0.0000000   0.0000000   0.0000000   0.0000000   0.0000000   0.0000000   0.0000000   0.0000000   0.0000000
 NMagM=    0.0000000   0.0000000   0.0000000   0.0000000   0.0000000   0.0000000   0.0000000   2.7928460   2.7928460   0.0000000
 AtZNuc=   6.0000000   6.0000000   6.0000000   6.0000000   6.0000000   6.0000000   6.0000000   1.0000000   1.0000000   6.0000000

  Atom        51          52          53          54          55          56          57          58          59          60
 IAtWgt=           1           1           1           1           1           1           1           1           1           1
 AtmWgt=   1.0078250   1.0078250   1.0078250   1.0078250   1.0078250   1.0078250   1.0078250   1.0078250   1.0078250   1.0078250
 NucSpn=           1           1           1           1           1           1           1           1           1           1
 AtZEff=  -1.0000000  -1.0000000  -1.0000000  -1.0000000  -1.0000000  -1.0000000  -1.0000000  -1.0000000  -1.0000000  -1.0000000
 NQMom=    0.0000000   0.0000000   0.0000000   0.0000000   0.0000000   0.0000000   0.0000000   0.0000000   0.0000000   0.0000000
 NMagM=    2.7928460   2.7928460   2.7928460   2.7928460   2.7928460   2.7928460   2.7928460   2.7928460   2.7928460   2.7928460
 AtZNuc=   1.0000000   1.0000000   1.0000000   1.0000000   1.0000000   1.0000000   1.0000000   1.0000000   1.0000000   1.0000000

  Atom        61          62          63          64          65          66          67          68          69          70
 IAtWgt=           1           1           1           1           1           1           1           1           1           1
 AtmWgt=   1.0078250   1.0078250   1.0078250   1.0078250   1.0078250   1.0078250   1.0078250   1.0078250   1.0078250   1.0078250
 NucSpn=           1           1           1           1           1           1           1           1           1           1
 AtZEff=  -1.0000000  -1.0000000  -1.0000000  -1.0000000  -1.0000000  -1.0000000  -1.0000000  -1.0000000  -1.0000000  -1.0000000
 NQMom=    0.0000000   0.0000000   0.0000000   0.0000000   0.0000000   0.0000000   0.0000000   0.0000000   0.0000000   0.0000000
 NMagM=    2.7928460   2.7928460   2.7928460   2.7928460   2.7928460   2.7928460   2.7928460   2.7928460   2.7928460   2.7928460
 AtZNuc=   1.0000000   1.0000000   1.0000000   1.0000000   1.0000000   1.0000000   1.0000000   1.0000000   1.0000000   1.0000000

  Atom        71          72          73          74          75          76          77
 IAtWgt=          12           1           1           1           1           1           1
 AtmWgt=  12.0000000   1.0078250   1.0078250   1.0078250   1.0078250   1.0078250   1.0078250
 NucSpn=           0           1           1           1           1           1           1
 AtZEff=  -3.6000000  -1.0000000  -1.0000000  -1.0000000  -1.0000000  -1.0000000  -1.0000000
 NQMom=    0.0000000   0.0000000   0.0000000   0.0000000   0.0000000   0.0000000   0.0000000
 NMagM=    0.0000000   2.7928460   2.7928460   2.7928460   2.7928460   2.7928460   2.7928460
 AtZNuc=   6.0000000   1.0000000   1.0000000   1.0000000   1.0000000   1.0000000   1.0000000
 Leave Link  101 at Fri Mar  1 21:34:30 2024, MaxMem=  4294967296 cpu:         1.1
 (Enter /cluster/apps/gaussian/g09/l103.exe)

 GradGradGradGradGradGradGradGradGradGradGradGradGradGradGradGradGradGrad
 Berny optimization.
 Initialization pass.
 Force constant matrix read from checkpoint file:
 "ts-tbu2cy-v5-released.chk"
 NVar current= 457 chk= 457 common= 457.
                           ----------------------------
                           !    Initial Parameters    !
                           ! (Angstroms and Degrees)  !
 --------------------------                            --------------------------
 ! Name  Definition              Value          Derivative Info.                !
 --------------------------------------------------------------------------------
 ! R1    R(1,2)                  2.0364         D2E/DX2 =    0.0924             !
 ! R2    R(1,17)                 2.0372         D2E/DX2 =    0.1034             !
 ! R3    R(1,34)                 2.3161         D2E/DX2 =    0.1071             !
 ! R4    R(2,3)                  1.4039         D2E/DX2 =    0.384              !
 ! R5    R(2,10)                 1.4105         D2E/DX2 =    0.3037             !
 ! R6    R(2,17)                 1.8877         D2E/DX2 =    0.0176             !
 ! R7    R(3,4)                  1.0913         D2E/DX2 =    0.3675             !
 ! R8    R(3,5)                  1.3884         D2E/DX2 =    0.4235             !
 ! R9    R(5,6)                  1.092          D2E/DX2 =    0.3661             !
 ! R10   R(5,7)                  1.4073         D2E/DX2 =    0.3869             !
 ! R11   R(7,8)                  1.3961         D2E/DX2 =    0.4092             !
 ! R12   R(7,29)                 1.351          D2E/DX2 =    0.4554             !
 ! R13   R(8,9)                  1.0886         D2E/DX2 =    0.374              !
 ! R14   R(8,10)                 1.4021         D2E/DX2 =    0.4023             !
 ! R15   R(10,11)                1.4514         D2E/DX2 =    0.306              !
 ! R16   R(11,12)                1.3904         D2E/DX2 =    0.4268             !
 ! R17   R(11,16)                1.419          D2E/DX2 =    0.2797             !
 ! R18   R(12,13)                1.391          D2E/DX2 =    0.4256             !
 ! R19   R(12,28)                1.3311         D2E/DX2 =    0.4556             !
 ! R20   R(13,14)                1.3961         D2E/DX2 =    0.4123             !
 ! R21   R(13,27)                1.3232         D2E/DX2 =    0.4802             !
 ! R22   R(14,15)                1.395          D2E/DX2 =    0.4182             !
 ! R23   R(14,26)                1.322          D2E/DX2 =    0.4822             !
 ! R24   R(15,16)                1.394          D2E/DX2 =    0.4203             !
 ! R25   R(15,25)                1.3182         D2E/DX2 =    0.487              !
 ! R26   R(16,17)                1.4066         D2E/DX2 =    0.3427             !
 ! R27   R(17,18)                1.6714         D2E/DX2 =    0.2703             !
 ! R28   R(18,19)                1.456          D2E/DX2 =    0.6518             !
 ! R29   R(18,20)                1.4489         D2E/DX2 =    0.6805             !
 ! R30   R(18,21)                1.8083         D2E/DX2 =    0.1943             !
 ! R31   R(21,22)                1.759          D2E/DX2 =    0.2443             !
 ! R32   R(21,23)                1.0988         D2E/DX2 =    0.351              !
 ! R33   R(21,24)                1.0977         D2E/DX2 =    0.353              !
 ! R34   R(29,30)                1.399          D2E/DX2 =    0.3828             !
 ! R35   R(30,31)                1.1049         D2E/DX2 =    0.3333             !
 ! R36   R(30,32)                1.1047         D2E/DX2 =    0.3337             !
 ! R37   R(30,33)                1.0974         D2E/DX2 =    0.3536             !
 ! R38   R(34,35)                1.8718         D2E/DX2 =    0.1885             !
 ! R39   R(34,36)                1.9013         D2E/DX2 =    0.1755             !
 ! R40   R(34,37)                1.8971         D2E/DX2 =    0.1787             !
 ! R41   R(35,38)                1.5313         D2E/DX2 =    0.2574             !
 ! R42   R(35,39)                1.5324         D2E/DX2 =    0.2465             !
 ! R43   R(35,40)                1.1064         D2E/DX2 =    0.3272             !
 ! R44   R(36,41)                1.5283         D2E/DX2 =    0.2905             !
 ! R45   R(36,42)                1.5341         D2E/DX2 =    0.2844             !
 ! R46   R(36,43)                1.5345         D2E/DX2 =    0.2852             !
 ! R47   R(37,44)                1.5294         D2E/DX2 =    0.2907             !
 ! R48   R(37,45)                1.5351         D2E/DX2 =    0.2841             !
 ! R49   R(37,46)                1.5283         D2E/DX2 =    0.2906             !
 ! R50   R(38,47)                1.5238         D2E/DX2 =    0.2627             !
 ! R51   R(38,48)                1.0965         D2E/DX2 =    0.3538             !
 ! R52   R(38,49)                1.1029         D2E/DX2 =    0.3382             !
 ! R53   R(39,50)                1.5275         D2E/DX2 =    0.2582             !
 ! R54   R(39,51)                1.0983         D2E/DX2 =    0.348              !
 ! R55   R(39,52)                1.1019         D2E/DX2 =    0.3393             !
 ! R56   R(41,53)                1.0971         D2E/DX2 =    0.3539             !
 ! R57   R(41,54)                1.1029         D2E/DX2 =    0.3381             !
 ! R58   R(41,55)                1.0994         D2E/DX2 =    0.347              !
 ! R59   R(42,56)                1.1024         D2E/DX2 =    0.3393             !
 ! R60   R(42,57)                1.0977         D2E/DX2 =    0.3519             !
 ! R61   R(42,58)                1.1008         D2E/DX2 =    0.3456             !
 ! R62   R(43,59)                1.1014         D2E/DX2 =    0.3421             !
 ! R63   R(43,60)                1.1028         D2E/DX2 =    0.3385             !
 ! R64   R(43,61)                1.097          D2E/DX2 =    0.3548             !
 ! R65   R(44,62)                1.0989         D2E/DX2 =    0.3486             !
 ! R66   R(44,63)                1.1023         D2E/DX2 =    0.3399             !
 ! R67   R(44,64)                1.1024         D2E/DX2 =    0.3397             !
 ! R68   R(45,65)                1.1027         D2E/DX2 =    0.3392             !
 ! R69   R(45,66)                1.1016         D2E/DX2 =    0.3414             !
 ! R70   R(45,67)                1.1008         D2E/DX2 =    0.3445             !
 ! R71   R(46,68)                1.103          D2E/DX2 =    0.3381             !
 ! R72   R(46,69)                1.0994         D2E/DX2 =    0.3472             !
 ! R73   R(46,70)                1.098          D2E/DX2 =    0.352              !
 ! R74   R(47,71)                1.5234         D2E/DX2 =    0.2632             !
 ! R75   R(47,72)                1.1021         D2E/DX2 =    0.3386             !
 ! R76   R(47,73)                1.1055         D2E/DX2 =    0.3302             !
 ! R77   R(50,71)                1.5238         D2E/DX2 =    0.2619             !
 ! R78   R(50,74)                1.1021         D2E/DX2 =    0.3382             !
 ! R79   R(50,75)                1.1054         D2E/DX2 =    0.3305             !
 ! R80   R(71,76)                1.102          D2E/DX2 =    0.3388             !
 ! R81   R(71,77)                1.1053         D2E/DX2 =    0.331              !
 ! A1    A(2,1,17)              55.2123         D2E/DX2 =    0.0027             !
 ! A2    A(2,1,34)             119.1921         D2E/DX2 =    0.0061             !
 ! A3    A(17,1,34)            160.2958         D2E/DX2 =    0.019              !
 ! A4    A(1,2,3)              114.767          D2E/DX2 =    0.0536             !
 ! A5    A(1,2,10)             120.8678         D2E/DX2 =    0.0336             !
 ! A6    A(3,2,10)             120.017          D2E/DX2 =    0.0622             !
 ! A7    A(2,3,4)              120.3423         D2E/DX2 =    0.0758             !
 ! A8    A(2,3,5)              118.527          D2E/DX2 =    0.0718             !
 ! A9    A(4,3,5)              121.0466         D2E/DX2 =    0.0749             !
 ! A10   A(3,5,6)              120.7435         D2E/DX2 =    0.0761             !
 ! A11   A(3,5,7)              121.2253         D2E/DX2 =    0.0801             !
 ! A12   A(6,5,7)              118.0147         D2E/DX2 =    0.0762             !
 ! A13   A(5,7,8)              119.8097         D2E/DX2 =    0.09               !
 ! A14   A(5,7,29)             115.9152         D2E/DX2 =    0.1576             !
 ! A15   A(8,7,29)             124.2348         D2E/DX2 =    0.1713             !
 ! A16   A(7,8,9)              121.5815         D2E/DX2 =    0.0776             !
 ! A17   A(7,8,10)             119.338          D2E/DX2 =    0.0775             !
 ! A18   A(9,8,10)             118.9837         D2E/DX2 =    0.0802             !
 ! A19   A(2,10,8)             119.7787         D2E/DX2 =    0.0709             !
 ! A20   A(2,10,11)            112.3014         D2E/DX2 =    0.0639             !
 ! A21   A(8,10,11)            127.3649         D2E/DX2 =    0.0852             !
 ! A22   A(10,11,12)           128.9038         D2E/DX2 =    0.0949             !
 ! A23   A(10,11,16)           111.6624         D2E/DX2 =    0.0671             !
 ! A24   A(12,11,16)           119.4096         D2E/DX2 =    0.0761             !
 ! A25   A(11,12,13)           120.4249         D2E/DX2 =    0.0846             !
 ! A26   A(11,12,28)           120.8548         D2E/DX2 =    0.1337             !
 ! A27   A(13,12,28)           118.7068         D2E/DX2 =    0.1335             !
 ! A28   A(12,13,14)           119.8257         D2E/DX2 =    0.0839             !
 ! A29   A(12,13,27)           120.5122         D2E/DX2 =    0.1226             !
 ! A30   A(14,13,27)           119.6504         D2E/DX2 =    0.1225             !
 ! A31   A(13,14,15)           120.8563         D2E/DX2 =    0.0842             !
 ! A32   A(13,14,26)           119.2946         D2E/DX2 =    0.1242             !
 ! A33   A(15,14,26)           119.7983         D2E/DX2 =    0.1247             !
 ! A34   A(14,15,16)           119.2123         D2E/DX2 =    0.0844             !
 ! A35   A(14,15,25)           118.4362         D2E/DX2 =    0.1323             !
 ! A36   A(16,15,25)           122.3044         D2E/DX2 =    0.1293             !
 ! A37   A(11,16,15)           120.2066         D2E/DX2 =    0.0777             !
 ! A38   A(11,16,17)           113.9555         D2E/DX2 =    0.0675             !
 ! A39   A(15,16,17)           125.5802         D2E/DX2 =    0.0998             !
 ! A40   A(1,17,16)            108.8176         D2E/DX2 =    0.0304             !
 ! A41   A(1,17,18)            126.6178         D2E/DX2 =    0.0703             !
 ! A42   A(16,17,18)           123.5558         D2E/DX2 =    0.1025             !
 ! A43   A(17,18,19)           105.3977         D2E/DX2 =    0.076              !
 ! A44   A(17,18,20)           110.231          D2E/DX2 =    0.0744             !
 ! A45   A(17,18,21)           105.3543         D2E/DX2 =    0.2483             !
 ! A46   A(19,18,20)           122.2336         D2E/DX2 =    0.0421             !
 ! A47   A(19,18,21)           104.8135         D2E/DX2 =    0.0762             !
 ! A48   A(20,18,21)           107.5552         D2E/DX2 =    0.087              !
 ! A49   A(18,21,22)           113.1371         D2E/DX2 =    0.164              !
 ! A50   A(18,21,23)           104.4994         D2E/DX2 =    0.0965             !
 ! A51   A(18,21,24)           107.7542         D2E/DX2 =    0.1007             !
 ! A52   A(22,21,23)           110.1588         D2E/DX2 =    0.0609             !
 ! A53   A(22,21,24)           110.2443         D2E/DX2 =    0.063              !
 ! A54   A(23,21,24)           110.9073         D2E/DX2 =    0.0408             !
 ! A55   A(7,29,30)            118.4318         D2E/DX2 =    0.3269             !
 ! A56   A(29,30,31)           111.8048         D2E/DX2 =    0.1389             !
 ! A57   A(29,30,32)           111.9217         D2E/DX2 =    0.1389             !
 ! A58   A(29,30,33)           106.767          D2E/DX2 =    0.1406             !
 ! A59   A(31,30,32)           108.5423         D2E/DX2 =    0.0713             !
 ! A60   A(31,30,33)           108.9152         D2E/DX2 =    0.0689             !
 ! A61   A(32,30,33)           108.8041         D2E/DX2 =    0.0693             !
 ! A62   A(1,34,35)            117.7577         D2E/DX2 =    0.0369             !
 ! A63   A(1,34,36)            105.6334         D2E/DX2 =    0.0397             !
 ! A64   A(1,34,37)            108.5938         D2E/DX2 =    0.0276             !
 ! A65   A(35,34,36)           109.3238         D2E/DX2 =    0.0594             !
 ! A66   A(35,34,37)           103.5809         D2E/DX2 =    0.0573             !
 ! A67   A(36,34,37)           112.1016         D2E/DX2 =    0.052              !
 ! A68   A(34,35,38)           111.4728         D2E/DX2 =    0.0654             !
 ! A69   A(34,35,39)           119.3596         D2E/DX2 =    0.0631             !
 ! A70   A(34,35,40)           100.8361         D2E/DX2 =    0.0157             !
 ! A71   A(38,35,39)           110.5938         D2E/DX2 =    0.042              !
 ! A72   A(38,35,40)           106.218          D2E/DX2 =    0.0163             !
 ! A73   A(39,35,40)           107.0016         D2E/DX2 =    0.0181             !
 ! A74   A(34,36,41)           115.3011         D2E/DX2 =    0.0344             !
 ! A75   A(34,36,42)           106.1948         D2E/DX2 =    0.0329             !
 ! A76   A(34,36,43)           108.8526         D2E/DX2 =    0.0352             !
 ! A77   A(41,36,42)           110.4182         D2E/DX2 =    0.0306             !
 ! A78   A(41,36,43)           108.9763         D2E/DX2 =    0.034              !
 ! A79   A(42,36,43)           106.7425         D2E/DX2 =    0.034              !
 ! A80   A(34,37,44)           109.1229         D2E/DX2 =    0.0341             !
 ! A81   A(34,37,45)           105.1243         D2E/DX2 =    0.0339             !
 ! A82   A(34,37,46)           115.4885         D2E/DX2 =    0.0357             !
 ! A83   A(44,37,45)           107.9814         D2E/DX2 =    0.0318             !
 ! A84   A(44,37,46)           109.9574         D2E/DX2 =    0.0329             !
 ! A85   A(45,37,46)           108.836          D2E/DX2 =    0.0326             !
 ! A86   A(35,38,47)           111.7389         D2E/DX2 =    0.053              !
 ! A87   A(35,38,48)           109.5204         D2E/DX2 =    0.0376             !
 ! A88   A(35,38,49)           109.9633         D2E/DX2 =    0.0349             !
 ! A89   A(47,38,48)           110.225          D2E/DX2 =    0.0383             !
 ! A90   A(47,38,49)           109.4909         D2E/DX2 =    0.0342             !
 ! A91   A(48,38,49)           105.727          D2E/DX2 =    0.0143             !
 ! A92   A(35,39,50)           110.8255         D2E/DX2 =    0.0522             !
 ! A93   A(35,39,51)           111.4414         D2E/DX2 =    0.0365             !
 ! A94   A(35,39,52)           109.6853         D2E/DX2 =    0.0326             !
 ! A95   A(50,39,51)           109.8311         D2E/DX2 =    0.0389             !
 ! A96   A(50,39,52)           108.4383         D2E/DX2 =    0.033              !
 ! A97   A(51,39,52)           106.4819         D2E/DX2 =    0.0145             !
 ! A98   A(36,41,53)           112.9582         D2E/DX2 =    0.0987             !
 ! A99   A(36,41,54)           109.0318         D2E/DX2 =    0.101              !
 ! A100  A(36,41,55)           111.8359         D2E/DX2 =    0.0994             !
 ! A101  A(53,41,54)           107.4448         D2E/DX2 =    0.0491             !
 ! A102  A(53,41,55)           108.3205         D2E/DX2 =    0.052              !
 ! A103  A(54,41,55)           106.9885         D2E/DX2 =    0.0479             !
 ! A104  A(36,42,56)           108.918          D2E/DX2 =    0.1008             !
 ! A105  A(36,42,57)           112.938          D2E/DX2 =    0.1005             !
 ! A106  A(36,42,58)           111.3701         D2E/DX2 =    0.1009             !
 ! A107  A(56,42,57)           107.466          D2E/DX2 =    0.0493             !
 ! A108  A(56,42,58)           107.6033         D2E/DX2 =    0.0474             !
 ! A109  A(57,42,58)           108.3387         D2E/DX2 =    0.0519             !
 ! A110  A(36,43,59)           111.1637         D2E/DX2 =    0.1012             !
 ! A111  A(36,43,60)           108.7405         D2E/DX2 =    0.1012             !
 ! A112  A(36,43,61)           113.1788         D2E/DX2 =    0.101              !
 ! A113  A(59,43,60)           108.006          D2E/DX2 =    0.0468             !
 ! A114  A(59,43,61)           108.0142         D2E/DX2 =    0.052              !
 ! A115  A(60,43,61)           107.5554         D2E/DX2 =    0.0494             !
 ! A116  A(37,44,62)           112.3609         D2E/DX2 =    0.0994             !
 ! A117  A(37,44,63)           111.6797         D2E/DX2 =    0.101              !
 ! A118  A(37,44,64)           109.2729         D2E/DX2 =    0.1014             !
 ! A119  A(62,44,63)           108.3825         D2E/DX2 =    0.0517             !
 ! A120  A(62,44,64)           107.3886         D2E/DX2 =    0.049              !
 ! A121  A(63,44,64)           107.5545         D2E/DX2 =    0.0483             !
 ! A122  A(37,45,65)           109.3201         D2E/DX2 =    0.0992             !
 ! A123  A(37,45,66)           111.5611         D2E/DX2 =    0.1017             !
 ! A124  A(37,45,67)           112.5736         D2E/DX2 =    0.1021             !
 ! A125  A(65,45,66)           108.2759         D2E/DX2 =    0.0479             !
 ! A126  A(65,45,67)           107.3771         D2E/DX2 =    0.0493             !
 ! A127  A(66,45,67)           107.5576         D2E/DX2 =    0.0517             !
 ! A128  A(37,46,68)           109.0773         D2E/DX2 =    0.101              !
 ! A129  A(37,46,69)           111.9094         D2E/DX2 =    0.1002             !
 ! A130  A(37,46,70)           112.8123         D2E/DX2 =    0.099              !
 ! A131  A(68,46,69)           106.9508         D2E/DX2 =    0.0482             !
 ! A132  A(68,46,70)           107.4407         D2E/DX2 =    0.049              !
 ! A133  A(69,46,70)           108.391          D2E/DX2 =    0.052              !
 ! A134  A(38,47,71)           111.872          D2E/DX2 =    0.0546             !
 ! A135  A(38,47,72)           109.49           D2E/DX2 =    0.038              !
 ! A136  A(38,47,73)           109.0299         D2E/DX2 =    0.0344             !
 ! A137  A(71,47,72)           110.8156         D2E/DX2 =    0.0382             !
 ! A138  A(71,47,73)           109.1323         D2E/DX2 =    0.0332             !
 ! A139  A(72,47,73)           106.3314         D2E/DX2 =    0.0144             !
 ! A140  A(39,50,71)           111.6529         D2E/DX2 =    0.0541             !
 ! A141  A(39,50,74)           109.6776         D2E/DX2 =    0.0379             !
 ! A142  A(39,50,75)           109.1205         D2E/DX2 =    0.0343             !
 ! A143  A(71,50,74)           110.6136         D2E/DX2 =    0.0383             !
 ! A144  A(71,50,75)           109.3298         D2E/DX2 =    0.0331             !
 ! A145  A(74,50,75)           106.2907         D2E/DX2 =    0.0144             !
 ! A146  A(47,71,50)           110.9553         D2E/DX2 =    0.0543             !
 ! A147  A(47,71,76)           110.6754         D2E/DX2 =    0.0383             !
 ! A148  A(47,71,77)           109.2218         D2E/DX2 =    0.033              !
 ! A149  A(50,71,76)           110.4652         D2E/DX2 =    0.0384             !
 ! A150  A(50,71,77)           109.0534         D2E/DX2 =    0.0332             !
 ! A151  A(76,71,77)           106.3421         D2E/DX2 =    0.0145             !
 ! D1    D(17,1,2,3)          -119.3908         D2E/DX2 =    0.0306             !
 ! D2    D(17,1,2,10)           84.0291         D2E/DX2 =    0.0296             !
 ! D3    D(34,1,2,3)            82.9445         D2E/DX2 =    0.0146             !
 ! D4    D(34,1,2,10)          -73.6356         D2E/DX2 =    0.0106             !
 ! D5    D(2,1,17,16)          -91.4216         D2E/DX2 =    0.0354             !
 ! D6    D(2,1,17,18)           99.824          D2E/DX2 =    0.032              !
 ! D7    D(34,1,17,16)         -11.6961         D2E/DX2 =    0.0067             !
 ! D8    D(34,1,17,18)         179.5495         D2E/DX2 =    0.0083             !
 ! D9    D(2,1,34,35)          -38.041          D2E/DX2 =    0.0138             !
 ! D10   D(2,1,34,36)           84.3421         D2E/DX2 =    0.0164             !
 ! D11   D(2,1,34,37)         -155.2361         D2E/DX2 =    0.0154             !
 ! D12   D(17,1,34,35)        -105.8111         D2E/DX2 =    0.0154             !
 ! D13   D(17,1,34,36)          16.572          D2E/DX2 =    0.017              !
 ! D14   D(17,1,34,37)         136.9938         D2E/DX2 =    0.0163             !
 ! D15   D(1,2,3,4)             31.5013         D2E/DX2 =    0.0074             !
 ! D16   D(1,2,3,5)           -145.2005         D2E/DX2 =    0.0068             !
 ! D17   D(10,2,3,4)          -171.7031         D2E/DX2 =    0.0073             !
 ! D18   D(10,2,3,5)            11.5951         D2E/DX2 =    0.0079             !
 ! D19   D(1,2,10,8)           142.2281         D2E/DX2 =    0.0045             !
 ! D20   D(1,2,10,11)          -45.6974         D2E/DX2 =    0.0054             !
 ! D21   D(3,2,10,8)           -13.1384         D2E/DX2 =    0.0068             !
 ! D22   D(3,2,10,11)          158.936          D2E/DX2 =    0.0095             !
 ! D23   D(2,3,5,6)            175.7847         D2E/DX2 =    0.0085             !
 ! D24   D(2,3,5,7)             -2.7076         D2E/DX2 =    0.0088             !
 ! D25   D(4,3,5,6)             -0.8929         D2E/DX2 =    0.0088             !
 ! D26   D(4,3,5,7)           -179.3852         D2E/DX2 =    0.0083             !
 ! D27   D(3,5,7,8)             -4.7598         D2E/DX2 =    0.0081             !
 ! D28   D(3,5,7,29)           177.4518         D2E/DX2 =    0.0083             !
 ! D29   D(6,5,7,8)            176.708          D2E/DX2 =    0.0073             !
 ! D30   D(6,5,7,29)            -1.0804         D2E/DX2 =    0.0092             !
 ! D31   D(5,7,8,9)           -173.1072         D2E/DX2 =    0.0083             !
 ! D32   D(5,7,8,10)             3.2785         D2E/DX2 =    0.0078             !
 ! D33   D(29,7,8,9)             4.4867         D2E/DX2 =    0.0095             !
 ! D34   D(29,7,8,10)         -179.1277         D2E/DX2 =    0.0096             !
 ! D35   D(5,7,29,30)          178.1519         D2E/DX2 =    0.0096             !
 ! D36   D(8,7,29,30)            0.473          D2E/DX2 =    0.0087             !
 ! D37   D(7,8,10,2)             5.5495         D2E/DX2 =    0.008              !
 ! D38   D(7,8,10,11)         -165.2139         D2E/DX2 =    0.0103             !
 ! D39   D(9,8,10,2)          -177.9703         D2E/DX2 =    0.0072             !
 ! D40   D(9,8,10,11)           11.2663         D2E/DX2 =    0.0087             !
 ! D41   D(2,10,11,12)         165.1726         D2E/DX2 =    0.0074             !
 ! D42   D(2,10,11,16)         -16.6553         D2E/DX2 =    0.0095             !
 ! D43   D(8,10,11,12)         -23.488          D2E/DX2 =    0.0063             !
 ! D44   D(8,10,11,16)         154.6842         D2E/DX2 =    0.0083             !
 ! D45   D(10,11,12,13)        178.4785         D2E/DX2 =    0.0073             !
 ! D46   D(10,11,12,28)         -2.8743         D2E/DX2 =    0.0093             !
 ! D47   D(16,11,12,13)          0.4285         D2E/DX2 =    0.0061             !
 ! D48   D(16,11,12,28)        179.0757         D2E/DX2 =    0.0091             !
 ! D49   D(10,11,16,15)        179.3415         D2E/DX2 =    0.006              !
 ! D50   D(10,11,16,17)          4.8538         D2E/DX2 =    0.0081             !
 ! D51   D(12,11,16,15)         -2.2913         D2E/DX2 =    0.0055             !
 ! D52   D(12,11,16,17)       -176.779          D2E/DX2 =    0.006              !
 ! D53   D(11,12,13,14)          0.5406         D2E/DX2 =    0.0063             !
 ! D54   D(11,12,13,27)        179.2894         D2E/DX2 =    0.0094             !
 ! D55   D(28,12,13,14)       -178.1353         D2E/DX2 =    0.0091             !
 ! D56   D(28,12,13,27)          0.6135         D2E/DX2 =    0.0114             !
 ! D57   D(12,13,14,15)          0.3361         D2E/DX2 =    0.0057             !
 ! D58   D(12,13,14,26)        177.7356         D2E/DX2 =    0.0092             !
 ! D59   D(27,13,14,15)       -178.4236         D2E/DX2 =    0.0089             !
 ! D60   D(27,13,14,26)         -1.024          D2E/DX2 =    0.0113             !
 ! D61   D(13,14,15,16)         -2.178          D2E/DX2 =    0.0062             !
 ! D62   D(13,14,15,25)        175.3834         D2E/DX2 =    0.0093             !
 ! D63   D(26,14,15,16)       -179.5646         D2E/DX2 =    0.0093             !
 ! D64   D(26,14,15,25)         -2.0032         D2E/DX2 =    0.0118             !
 ! D65   D(14,15,16,11)          3.1418         D2E/DX2 =    0.0061             !
 ! D66   D(14,15,16,17)        176.9454         D2E/DX2 =    0.0074             !
 ! D67   D(25,15,16,11)       -174.3211         D2E/DX2 =    0.0103             !
 ! D68   D(25,15,16,17)         -0.5175         D2E/DX2 =    0.0098             !
 ! D69   D(11,16,17,1)          69.479          D2E/DX2 =    0.0075             !
 ! D70   D(11,16,17,18)       -121.3469         D2E/DX2 =    0.009              !
 ! D71   D(15,16,17,1)        -104.6624         D2E/DX2 =    0.0075             !
 ! D72   D(15,16,17,18)         64.5116         D2E/DX2 =    0.0095             !
 ! D73   D(1,17,18,19)         -12.7151         D2E/DX2 =    0.0308             !
 ! D74   D(1,17,18,20)         121.0024         D2E/DX2 =    0.0354             !
 ! D75   D(1,17,18,21)        -123.2409         D2E/DX2 =    0.0255             !
 ! D76   D(16,17,18,19)       -179.9176         D2E/DX2 =    0.0351             !
 ! D77   D(16,17,18,20)        -46.2001         D2E/DX2 =    0.0294             !
 ! D78   D(16,17,18,21)         69.5566         D2E/DX2 =    0.0219             !
 ! D79   D(17,18,21,22)        -65.3403         D2E/DX2 =    0.0262             !
 ! D80   D(17,18,21,23)        174.8184         D2E/DX2 =    0.023              !
 ! D81   D(17,18,21,24)         56.7951         D2E/DX2 =    0.0226             !
 ! D82   D(19,18,21,22)       -176.2827         D2E/DX2 =    0.0278             !
 ! D83   D(19,18,21,23)         63.876          D2E/DX2 =    0.026              !
 ! D84   D(19,18,21,24)        -54.1473         D2E/DX2 =    0.0266             !
 ! D85   D(20,18,21,22)         52.24           D2E/DX2 =    0.0259             !
 ! D86   D(20,18,21,23)        -67.6013         D2E/DX2 =    0.0234             !
 ! D87   D(20,18,21,24)        174.3753         D2E/DX2 =    0.0239             !
 ! D88   D(7,29,30,31)          59.5386         D2E/DX2 =    0.029              !
 ! D89   D(7,29,30,32)         -62.4809         D2E/DX2 =    0.0293             !
 ! D90   D(7,29,30,33)         178.5634         D2E/DX2 =    0.0258             !
 ! D91   D(1,34,35,38)          27.6486         D2E/DX2 =    0.0091             !
 ! D92   D(1,34,35,39)         158.5651         D2E/DX2 =    0.011              !
 ! D93   D(1,34,35,40)         -84.7388         D2E/DX2 =    0.0084             !
 ! D94   D(36,34,35,38)        -92.8327         D2E/DX2 =    0.0186             !
 ! D95   D(36,34,35,39)         38.0838         D2E/DX2 =    0.0187             !
 ! D96   D(36,34,35,40)        154.7799         D2E/DX2 =    0.0174             !
 ! D97   D(37,34,35,38)        147.5047         D2E/DX2 =    0.0153             !
 ! D98   D(37,34,35,39)        -81.5788         D2E/DX2 =    0.0179             !
 ! D99   D(37,34,35,40)         35.1173         D2E/DX2 =    0.0137             !
 ! D100  D(1,34,36,41)         161.8245         D2E/DX2 =    0.0129             !
 ! D101  D(1,34,36,42)         -75.5515         D2E/DX2 =    0.0162             !
 ! D102  D(1,34,36,43)          39.0401         D2E/DX2 =    0.0148             !
 ! D103  D(35,34,36,41)        -70.5409         D2E/DX2 =    0.0206             !
 ! D104  D(35,34,36,42)         52.0831         D2E/DX2 =    0.0235             !
 ! D105  D(35,34,36,43)        166.6747         D2E/DX2 =    0.0208             !
 ! D106  D(37,34,36,41)         43.7251         D2E/DX2 =    0.0177             !
 ! D107  D(37,34,36,42)        166.3491         D2E/DX2 =    0.0196             !
 ! D108  D(37,34,36,43)        -79.0594         D2E/DX2 =    0.0213             !
 ! D109  D(1,34,37,44)         -64.125          D2E/DX2 =    0.0145             !
 ! D110  D(1,34,37,45)          51.4806         D2E/DX2 =    0.0156             !
 ! D111  D(1,34,37,46)         171.4378         D2E/DX2 =    0.0141             !
 ! D112  D(35,34,37,44)        169.9458         D2E/DX2 =    0.0198             !
 ! D113  D(35,34,37,45)        -74.4486         D2E/DX2 =    0.022              !
 ! D114  D(35,34,37,46)         45.5086         D2E/DX2 =    0.0196             !
 ! D115  D(36,34,37,44)         52.2016         D2E/DX2 =    0.0217             !
 ! D116  D(36,34,37,45)        167.8072         D2E/DX2 =    0.0215             !
 ! D117  D(36,34,37,46)        -72.2356         D2E/DX2 =    0.0214             !
 ! D118  D(34,35,38,47)       -169.6626         D2E/DX2 =    0.0189             !
 ! D119  D(34,35,38,48)        -47.2351         D2E/DX2 =    0.0164             !
 ! D120  D(34,35,38,49)         68.5341         D2E/DX2 =    0.0164             !
 ! D121  D(39,35,38,47)         55.0512         D2E/DX2 =    0.0156             !
 ! D122  D(39,35,38,48)        177.4787         D2E/DX2 =    0.0161             !
 ! D123  D(39,35,38,49)        -66.7521         D2E/DX2 =    0.0171             !
 ! D124  D(40,35,38,47)        -60.7085         D2E/DX2 =    0.0135             !
 ! D125  D(40,35,38,48)         61.719          D2E/DX2 =    0.0128             !
 ! D126  D(40,35,38,49)        177.4882         D2E/DX2 =    0.0135             !
 ! D127  D(34,35,39,50)        172.9148         D2E/DX2 =    0.0172             !
 ! D128  D(34,35,39,51)         50.2765         D2E/DX2 =    0.0149             !
 ! D129  D(34,35,39,52)        -67.3839         D2E/DX2 =    0.015              !
 ! D130  D(38,35,39,50)        -55.7813         D2E/DX2 =    0.0157             !
 ! D131  D(38,35,39,51)       -178.4196         D2E/DX2 =    0.0161             !
 ! D132  D(38,35,39,52)         63.9199         D2E/DX2 =    0.0172             !
 ! D133  D(40,35,39,50)         59.4886         D2E/DX2 =    0.0134             !
 ! D134  D(40,35,39,51)        -63.1496         D2E/DX2 =    0.0126             !
 ! D135  D(40,35,39,52)        179.1899         D2E/DX2 =    0.0135             !
 ! D136  D(34,36,41,53)         57.1422         D2E/DX2 =    0.0136             !
 ! D137  D(34,36,41,54)        176.5174         D2E/DX2 =    0.0142             !
 ! D138  D(34,36,41,55)        -65.3714         D2E/DX2 =    0.014              !
 ! D139  D(42,36,41,53)        -63.1993         D2E/DX2 =    0.0146             !
 ! D140  D(42,36,41,54)         56.1759         D2E/DX2 =    0.0148             !
 ! D141  D(42,36,41,55)        174.2871         D2E/DX2 =    0.0151             !
 ! D142  D(43,36,41,53)        179.8608         D2E/DX2 =    0.0151             !
 ! D143  D(43,36,41,54)        -60.764          D2E/DX2 =    0.0149             !
 ! D144  D(43,36,41,55)         57.3472         D2E/DX2 =    0.0149             !
 ! D145  D(34,36,42,56)        171.1674         D2E/DX2 =    0.0155             !
 ! D146  D(34,36,42,57)        -69.5208         D2E/DX2 =    0.0153             !
 ! D147  D(34,36,42,58)         52.6515         D2E/DX2 =    0.0157             !
 ! D148  D(41,36,42,56)        -63.1719         D2E/DX2 =    0.0143             !
 ! D149  D(41,36,42,57)         56.1399         D2E/DX2 =    0.0143             !
 ! D150  D(41,36,42,58)        178.3122         D2E/DX2 =    0.0149             !
 ! D151  D(43,36,42,56)         55.1432         D2E/DX2 =    0.0159             !
 ! D152  D(43,36,42,57)        174.455          D2E/DX2 =    0.0161             !
 ! D153  D(43,36,42,58)        -63.3727         D2E/DX2 =    0.0163             !
 ! D154  D(34,36,43,59)        -55.5411         D2E/DX2 =    0.0145             !
 ! D155  D(34,36,43,60)       -174.3165         D2E/DX2 =    0.0147             !
 ! D156  D(34,36,43,61)         66.2281         D2E/DX2 =    0.0141             !
 ! D157  D(41,36,43,59)        177.9485         D2E/DX2 =    0.0139             !
 ! D158  D(41,36,43,60)         59.1731         D2E/DX2 =    0.0136             !
 ! D159  D(41,36,43,61)        -60.2823         D2E/DX2 =    0.0134             !
 ! D160  D(42,36,43,59)         58.6938         D2E/DX2 =    0.0148             !
 ! D161  D(42,36,43,60)        -60.0817         D2E/DX2 =    0.0149             !
 ! D162  D(42,36,43,61)       -179.537          D2E/DX2 =    0.0149             !
 ! D163  D(34,37,44,62)        -73.0009         D2E/DX2 =    0.0151             !
 ! D164  D(34,37,44,63)         49.0379         D2E/DX2 =    0.0151             !
 ! D165  D(34,37,44,64)        167.9094         D2E/DX2 =    0.0149             !
 ! D166  D(45,37,44,62)        173.2416         D2E/DX2 =    0.0156             !
 ! D167  D(45,37,44,63)        -64.7196         D2E/DX2 =    0.0155             !
 ! D168  D(45,37,44,64)         54.1519         D2E/DX2 =    0.0153             !
 ! D169  D(46,37,44,62)         54.6226         D2E/DX2 =    0.0143             !
 ! D170  D(46,37,44,63)        176.6614         D2E/DX2 =    0.0147             !
 ! D171  D(46,37,44,64)        -64.4671         D2E/DX2 =    0.0142             !
 ! D172  D(34,37,45,65)       -179.6121         D2E/DX2 =    0.0157             !
 ! D173  D(34,37,45,66)        -59.8869         D2E/DX2 =    0.0154             !
 ! D174  D(34,37,45,67)         61.1467         D2E/DX2 =    0.0151             !
 ! D175  D(44,37,45,65)        -63.221          D2E/DX2 =    0.015              !
 ! D176  D(44,37,45,66)         56.5042         D2E/DX2 =    0.0151             !
 ! D177  D(44,37,45,67)        177.5378         D2E/DX2 =    0.015              !
 ! D178  D(46,37,45,65)         56.111          D2E/DX2 =    0.0146             !
 ! D179  D(46,37,45,66)        175.8362         D2E/DX2 =    0.0149             !
 ! D180  D(46,37,45,67)        -63.1302         D2E/DX2 =    0.0144             !
 ! D181  D(34,37,46,68)        178.7076         D2E/DX2 =    0.0142             !
 ! D182  D(34,37,46,69)        -63.1542         D2E/DX2 =    0.0142             !
 ! D183  D(34,37,46,70)         59.399          D2E/DX2 =    0.0137             !
 ! D184  D(44,37,46,68)         54.7058         D2E/DX2 =    0.014              !
 ! D185  D(44,37,46,69)        172.844          D2E/DX2 =    0.0144             !
 ! D186  D(44,37,46,70)        -64.6027         D2E/DX2 =    0.014              !
 ! D187  D(45,37,46,68)        -63.3861         D2E/DX2 =    0.0147             !
 ! D188  D(45,37,46,69)         54.752          D2E/DX2 =    0.0148             !
 ! D189  D(45,37,46,70)        177.3053         D2E/DX2 =    0.015              !
 ! D190  D(35,38,47,71)        -54.6103         D2E/DX2 =    0.0145             !
 ! D191  D(35,38,47,72)       -177.8591         D2E/DX2 =    0.0155             !
 ! D192  D(35,38,47,73)         66.19           D2E/DX2 =    0.0162             !
 ! D193  D(48,38,47,71)       -176.6338         D2E/DX2 =    0.0158             !
 ! D194  D(48,38,47,72)         60.1175         D2E/DX2 =    0.0144             !
 ! D195  D(48,38,47,73)        -55.8334         D2E/DX2 =    0.0151             !
 ! D196  D(49,38,47,71)         67.4648         D2E/DX2 =    0.0163             !
 ! D197  D(49,38,47,72)        -55.784          D2E/DX2 =    0.0149             !
 ! D198  D(49,38,47,73)       -171.7349         D2E/DX2 =    0.0163             !
 ! D199  D(35,39,50,71)         56.5138         D2E/DX2 =    0.0147             !
 ! D200  D(35,39,50,74)        179.4876         D2E/DX2 =    0.0155             !
 ! D201  D(35,39,50,75)        -64.4544         D2E/DX2 =    0.016              !
 ! D202  D(51,39,50,71)       -179.9178         D2E/DX2 =    0.0159             !
 ! D203  D(51,39,50,74)        -56.9439         D2E/DX2 =    0.0144             !
 ! D204  D(51,39,50,75)         59.1141         D2E/DX2 =    0.015              !
 ! D205  D(52,39,50,71)        -63.9316         D2E/DX2 =    0.0165             !
 ! D206  D(52,39,50,74)         59.0422         D2E/DX2 =    0.0149             !
 ! D207  D(52,39,50,75)        175.1002         D2E/DX2 =    0.0162             !
 ! D208  D(38,47,71,50)         54.3035         D2E/DX2 =    0.0154             !
 ! D209  D(38,47,71,76)        177.3076         D2E/DX2 =    0.0156             !
 ! D210  D(38,47,71,77)        -65.9439         D2E/DX2 =    0.0166             !
 ! D211  D(72,47,71,50)        176.7995         D2E/DX2 =    0.0157             !
 ! D212  D(72,47,71,76)        -60.1965         D2E/DX2 =    0.0142             !
 ! D213  D(72,47,71,77)         56.552          D2E/DX2 =    0.015              !
 ! D214  D(73,47,71,50)        -66.4373         D2E/DX2 =    0.0167             !
 ! D215  D(73,47,71,76)         56.5667         D2E/DX2 =    0.015              !
 ! D216  D(73,47,71,77)        173.3152         D2E/DX2 =    0.0164             !
 ! D217  D(39,50,71,47)        -55.4345         D2E/DX2 =    0.0154             !
 ! D218  D(39,50,71,76)       -178.5597         D2E/DX2 =    0.0156             !
 ! D219  D(39,50,71,77)         64.9129         D2E/DX2 =    0.0165             !
 ! D220  D(74,50,71,47)       -177.8737         D2E/DX2 =    0.0157             !
 ! D221  D(74,50,71,76)         59.0011         D2E/DX2 =    0.0142             !
 ! D222  D(74,50,71,77)        -57.5262         D2E/DX2 =    0.015              !
 ! D223  D(75,50,71,47)         65.4116         D2E/DX2 =    0.0167             !
 ! D224  D(75,50,71,76)        -57.7135         D2E/DX2 =    0.015              !
 ! D225  D(75,50,71,77)       -174.2409         D2E/DX2 =    0.0164             !
 --------------------------------------------------------------------------------
 Trust Radius=3.00D-01 FncErr=1.00D-07 GrdErr=1.00D-06
 Number of steps in this run=    462 maximum allowed number of steps=    462.
 Search for a saddle point of order  1.
 GradGradGradGradGradGradGradGradGradGradGradGradGradGradGradGradGradGrad

 Leave Link  103 at Fri Mar  1 21:34:30 2024, MaxMem=  4294967296 cpu:         0.1
 (Enter /cluster/apps/gaussian/g09/l202.exe)
 Stoichiometry    C28H37ClF4NO3PPdS
 Framework group  C1[X(C28H37ClF4NO3PPdS)]
 Deg. of freedom   225
 Full point group                 C1      NOp   1
 RotChk:  IX=0 Diff= 5.79D-15
 Largest Abelian subgroup         C1      NOp   1
 Largest concise Abelian subgroup C1      NOp   1
                         Standard orientation:                         
 ---------------------------------------------------------------------
 Center     Atomic      Atomic             Coordinates (Angstroms)
 Number     Number       Type             X           Y           Z
 ---------------------------------------------------------------------
      1         46           0        0.369929   -0.769560   -0.965314
      2          6           0       -0.597176    1.010505   -0.758067
      3          6           0       -0.232391    1.990581   -1.694754
      4          1           0        0.072522    1.703628   -2.702524
      5          6           0       -0.202466    3.317746   -1.288235
      6          1           0        0.141542    4.101630   -1.966226
      7          6           0       -0.582647    3.690471    0.014435
      8          6           0       -1.093163    2.730306    0.889911
      9          1           0       -1.498387    3.003717    1.862627
     10          6           0       -1.155433    1.390900    0.480089
     11          6           0       -1.904770    0.313861    1.100530
     12          6           0       -2.352091    0.204148    2.412407
     13          6           0       -3.090204   -0.904194    2.814627
     14          6           0       -3.374527   -1.918745    1.898662
     15          6           0       -2.921663   -1.841047    0.581474
     16          6           0       -2.215490   -0.711649    0.170338
     17          7           0       -1.647321   -0.519924   -1.102042
     18         16           0       -2.545078   -0.408404   -2.507434
     19          8           0       -1.572080   -0.217136   -3.573569
     20          8           0       -3.541628   -1.459237   -2.550078
     21          6           0       -3.420857    1.169477   -2.392224
     22         17           0       -4.594364    1.214614   -1.082713
     23          1           0       -3.929822    1.272975   -3.360550
     24          1           0       -2.670835    1.959520   -2.257507
     25          9           0       -3.137531   -2.866616   -0.218023
     26          9           0       -4.037890   -2.988269    2.303284
     27          9           0       -3.504804   -1.017089    4.066084
     28          9           0       -2.061799    1.140132    3.313165
     29          8           0       -0.461742    5.002691    0.312105
     30          6           0       -0.862004    5.437679    1.580040
     31          1           0       -0.296600    4.933469    2.384320
     32          1           0       -1.940567    5.271612    1.751565
     33          1           0       -0.658653    6.515147    1.623869
     34         15           0        2.477745   -1.024463   -0.039843
     35          6           0        3.646220    0.435794   -0.117217
     36          6           0        2.185238   -1.500574    1.777475
     37          6           0        3.397288   -2.381852   -0.994205
     38          6           0        2.883165    1.762845   -0.155948
     39          6           0        4.815908    0.515200    0.869621
     40          1           0        4.081943    0.300354   -1.125139
     41          6           0        3.379549   -2.138985    2.485778
     42          6           0        1.763823   -0.211752    2.494928
     43          6           0        0.989572   -2.459511    1.852574
     44          6           0        2.669311   -3.712656   -0.798775
     45          6           0        3.273243   -1.986433   -2.472279
     46          6           0        4.877409   -2.541272   -0.648628
     47          6           0        3.804557    2.934665   -0.471982
     48          1           0        2.079176    1.701648   -0.899079
     49          1           0        2.383385    1.938197    0.811425
     50          6           0        5.738810    1.682648    0.525100
     51          1           0        5.390079   -0.420833    0.887802
     52          1           0        4.430371    0.665353    1.890911
     53          1           0        4.275517   -1.506150    2.468725
     54          1           0        3.118892   -2.314655    3.542978
     55          1           0        3.637970   -3.115620    2.052089
     56          1           0        1.429332   -0.463415    3.514785
     57          1           0        2.582132    0.514166    2.586312
     58          1           0        0.922847    0.277376    1.979957
     59          1           0        0.096028   -2.018470    1.383329
     60          1           0        0.757111   -2.653591    2.912951
     61          1           0        1.181613   -3.427412    1.373421
     62          1           0        2.813181   -4.123666    0.210204
     63          1           0        1.586897   -3.615700   -0.983569
     64          1           0        3.063990   -4.451907   -1.515011
     65          1           0        3.782980   -2.739843   -3.095491
     66          1           0        2.219761   -1.931177   -2.789526
     67          1           0        3.736958   -1.011975   -2.689357
     68          1           0        5.299407   -3.368650   -1.243506
     69          1           0        5.456098   -1.640093   -0.897188
     70          1           0        5.044127   -2.778886    0.410264
     71          6           0        4.983193    3.005474    0.490537
     72          1           0        3.226313    3.872675   -0.452749
     73          1           0        4.185581    2.825479   -1.503971
     74          1           0        6.567003    1.727709    1.250886
     75          1           0        6.201256    1.499513   -0.462102
     76          1           0        5.661238    3.829426    0.215417
     77          1           0        4.610804    3.234917    1.505571
 ---------------------------------------------------------------------
 Rotational constants (GHZ):      0.0972135      0.0642241      0.0580349
 Leave Link  202 at Fri Mar  1 21:34:30 2024, MaxMem=  4294967296 cpu:         0.6
 (Enter /cluster/apps/gaussian/g09/l301.exe)
 General basis read from cards:  (5D, 7F)
 Centers:       2      3      5      7      8     10     11     12     13     14
 Centers:      15     16     21     30     35     36     37     38     39     41
 Centers:      42     43     44     45     46     47     50     71     18     25
 Centers:      26     27     28     34     22      4      6      9     23     24
 Centers:      31     32     33     40     48     49     51     52     53     54
 Centers:      55     56     57     58     59     60     61     62     63     64
 Centers:      65     66     67     68     69     70     72     73     74     75
 Centers:      76     77     17     19     20     29
 def2svp
 ****
 Centers:       1
 def2tzvp
 ****
 ======================================================================================================
                                       Pseudopotential Parameters
 ======================================================================================================
  Center     Atomic      Valence      Angular      Power
  Number     Number     Electrons     Momentum     of R      Exponent        Coefficient   SO-Coeffient
 ======================================================================================================
    1         46           18
                                      G and up 
                                                     2        1.0000000        0.00000000    0.00000000
                                      S - G
                                                     2       12.4300000      240.22904000    0.00000000
                                                     2        6.1707590       35.17194300    0.00000000
                                      P - G
                                                     2       11.0800000      170.41727600    0.00000000
                                                     2        5.8295540       28.47213300    0.00000000
                                      D - G
                                                     2        9.5100000       69.01384500    0.00000000
                                                     2        4.1397810       11.75086200    0.00000000
                                      F - G
                                                     2       13.2700000      -31.92955400    0.00000000
                                                     2        6.6300000       -5.39821700    0.00000000
    2          6
                                   No pseudopotential on this center.
    3          6
                                   No pseudopotential on this center.
    4          1
                                   No pseudopotential on this center.
    5          6
                                   No pseudopotential on this center.
    6          1
                                   No pseudopotential on this center.
    7          6
                                   No pseudopotential on this center.
    8          6
                                   No pseudopotential on this center.
    9          1
                                   No pseudopotential on this center.
   10          6
                                   No pseudopotential on this center.
   11          6
                                   No pseudopotential on this center.
   12          6
                                   No pseudopotential on this center.
   13          6
                                   No pseudopotential on this center.
   14          6
                                   No pseudopotential on this center.
   15          6
                                   No pseudopotential on this center.
   16          6
                                   No pseudopotential on this center.
   17          7
                                   No pseudopotential on this center.
   18         16
                                   No pseudopotential on this center.
   19          8
                                   No pseudopotential on this center.
   20          8
                                   No pseudopotential on this center.
   21          6
                                   No pseudopotential on this center.
   22         17
                                   No pseudopotential on this center.
   23          1
                                   No pseudopotential on this center.
   24          1
                                   No pseudopotential on this center.
   25          9
                                   No pseudopotential on this center.
   26          9
                                   No pseudopotential on this center.
   27          9
                                   No pseudopotential on this center.
   28          9
                                   No pseudopotential on this center.
   29          8
                                   No pseudopotential on this center.
   30          6
                                   No pseudopotential on this center.
   31          1
                                   No pseudopotential on this center.
   32          1
                                   No pseudopotential on this center.
   33          1
                                   No pseudopotential on this center.
   34         15
                                   No pseudopotential on this center.
   35          6
                                   No pseudopotential on this center.
   36          6
                                   No pseudopotential on this center.
   37          6
                                   No pseudopotential on this center.
   38          6
                                   No pseudopotential on this center.
   39          6
                                   No pseudopotential on this center.
   40          1
                                   No pseudopotential on this center.
   41          6
                                   No pseudopotential on this center.
   42          6
                                   No pseudopotential on this center.
   43          6
                                   No pseudopotential on this center.
   44          6
                                   No pseudopotential on this center.
   45          6
                                   No pseudopotential on this center.
   46          6
                                   No pseudopotential on this center.
   47          6
                                   No pseudopotential on this center.
   48          1
                                   No pseudopotential on this center.
   49          1
                                   No pseudopotential on this center.
   50          6
                                   No pseudopotential on this center.
   51          1
                                   No pseudopotential on this center.
   52          1
                                   No pseudopotential on this center.
   53          1
                                   No pseudopotential on this center.
   54          1
                                   No pseudopotential on this center.
   55          1
                                   No pseudopotential on this center.
   56          1
                                   No pseudopotential on this center.
   57          1
                                   No pseudopotential on this center.
   58          1
                                   No pseudopotential on this center.
   59          1
                                   No pseudopotential on this center.
   60          1
                                   No pseudopotential on this center.
   61          1
                                   No pseudopotential on this center.
   62          1
                                   No pseudopotential on this center.
   63          1
                                   No pseudopotential on this center.
   64          1
                                   No pseudopotential on this center.
   65          1
                                   No pseudopotential on this center.
   66          1
                                   No pseudopotential on this center.
   67          1
                                   No pseudopotential on this center.
   68          1
                                   No pseudopotential on this center.
   69          1
                                   No pseudopotential on this center.
   70          1
                                   No pseudopotential on this center.
   71          6
                                   No pseudopotential on this center.
   72          1
                                   No pseudopotential on this center.
   73          1
                                   No pseudopotential on this center.
   74          1
                                   No pseudopotential on this center.
   75          1
                                   No pseudopotential on this center.
   76          1
                                   No pseudopotential on this center.
   77          1
                                   No pseudopotential on this center.
 ======================================================================================================
 Ernie: Thresh=  0.10000D-02 Tol=  0.10000D-05 Strict=F.
 There are   828 symmetry adapted cartesian basis functions of A   symmetry.
 There are   783 symmetry adapted basis functions of A   symmetry.
   783 basis functions,  1344 primitive gaussians,   828 cartesian basis functions
   169 alpha electrons      169 beta electrons
       nuclear repulsion energy      6608.1806145730 Hartrees.
 IExCor= 1009 DFT=T Ex+Corr=PBE1PBE ExCW=0 ScaHFX=  0.250000
 ScaDFX=  0.750000  0.750000  1.000000  1.000000 ScalE2=  1.000000  1.000000
 IRadAn=      5 IRanWt=     -1 IRanGd=            0 ICorTp=0 IEmpDi=141
 NAtoms=   77 NActive=   77 NUniq=   77 SFac= 1.00D+00 NAtFMM=   60 NAOKFM=T Big=T
 Integral buffers will be    131072 words long.
 Raffenetti 2 integral format.
 Two-electron integral symmetry is turned on.
 R6Disp:  Grimme-D3(BJ) Dispersion energy=       -0.1268310451 Hartrees.
 Nuclear repulsion after empirical dispersion term =     6608.0537835279 Hartrees.
 Leave Link  301 at Fri Mar  1 21:34:30 2024, MaxMem=  4294967296 cpu:         0.3
 (Enter /cluster/apps/gaussian/g09/l302.exe)
 NPDir=0 NMtPBC=     1 NCelOv=     1 NCel=       1 NClECP=     1 NCelD=      1
         NCelK=      1 NCelE2=     1 NClLst=     1 CellRange=     0.0.
 One-electron integrals computed using PRISM.
   1 Symmetry operations used in ECPInt.
 ECPInt:  NShTT=   66795 NPrTT=  240439 LenC2=   55833 LenP2D=  129379.
 LDataN:  DoStor=T MaxTD1= 7 Len=  274
 NBasis=   783 RedAO= T EigKep=  1.16D-04  NBF=   783
 NBsUse=   783 1.00D-06 EigRej= -1.00D+00 NBFU=   783
 Precomputing XC quadrature grid using
 IXCGrd= 4 IRadAn=           5 IRanWt=          -1 IRanGd=           0 AccXCQ= 0.00D+00.
 Defaulting to unpruned grid for atomic number  46.
 Generated NRdTot=       0 NPtTot=           0 NUsed=           0 NTot=          32
 NSgBfM=   759   775   777   787   790 MxSgAt=    77 MxSgA2=    77.
 Leave Link  302 at Fri Mar  1 21:34:36 2024, MaxMem=  4294967296 cpu:        46.6
 (Enter /cluster/apps/gaussian/g09/l303.exe)
 DipDrv:  MaxL=1.
 Leave Link  303 at Fri Mar  1 21:34:37 2024, MaxMem=  4294967296 cpu:         2.9
 (Enter /cluster/apps/gaussian/g09/l401.exe)
 ExpMin= 3.70D-02 ExpMax= 1.04D+04 ExpMxC= 1.57D+03 IAcc=3 IRadAn=         5 AccDes= 0.00D+00
 Harris functional with IExCor= 1009 and IRadAn=       5 diagonalized for initial guess.
 HarFok:  IExCor= 1009 AccDes= 0.00D+00 IRadAn=         5 IDoV= 1 UseB2=F ITyADJ=14
 ICtDFT=  3500011 ScaDFX=  1.000000  1.000000  1.000000  1.000000
 Defaulting to unpruned grid for atomic number  46.
 Defaulting to unpruned grid for atomic number  46.
 Defaulting to unpruned grid for atomic number  46.
 Defaulting to unpruned grid for atomic number  46.
 Defaulting to unpruned grid for atomic number  46.
 Defaulting to unpruned grid for atomic number  46.
 Defaulting to unpruned grid for atomic number  46.
 Defaulting to unpruned grid for atomic number  46.
 Defaulting to unpruned grid for atomic number  46.
 Defaulting to unpruned grid for atomic number  46.
 Defaulting to unpruned grid for atomic number  46.
 Defaulting to unpruned grid for atomic number  46.
 Defaulting to unpruned grid for atomic number  46.
 Defaulting to unpruned grid for atomic number  46.
 Defaulting to unpruned grid for atomic number  46.
 Defaulting to unpruned grid for atomic number  46.
 FoFCou: FMM=F IPFlag=           0 FMFlag=      100000 FMFlg1=        2001
         NFxFlg=           0 DoJE=T BraDBF=F KetDBF=T FulRan=T
         wScrn=  0.000000 ICntrl=     500 IOpCl=  0 I1Cent=   200000004 NGrid=           0
         NMat0=    1 NMatS0=      1 NMatT0=    0 NMatD0=    1 NMtDS0=    0 NMtDT0=    0
 Petite list used in FoFCou.
 Harris En= -3093.20651050291    
 JPrj=0 DoOrth=F DoCkMO=F.
 Leave Link  401 at Fri Mar  1 21:34:43 2024, MaxMem=  4294967296 cpu:        84.3
 (Enter /cluster/apps/gaussian/g09/l502.exe)
 Closed shell SCF:
 Using DIIS extrapolation, IDIIS=  1040.
 Integral symmetry usage will be decided dynamically.
 IVT=     2094820 IEndB=     2094820 NGot=  4294967296 MDV=  4293575529
 LenX=  4293575529 LenY=  4292889117
 Requested convergence on RMS density matrix=1.00D-08 within 128 cycles.
 Requested convergence on MAX density matrix=1.00D-06.
 Requested convergence on             energy=1.00D-06.
 No special actions if energy rises.
 Fock matrices will be formed incrementally for  20 cycles.

 Cycle   1  Pass 1  IDiag  1:
 FoFJK:  IHMeth= 1 ICntrl=       0 DoSepK=F KAlg= 0 I1Cent=   0 FoldK=F
 IRaf= 920000000 NMat=   1 IRICut=       1 DoRegI=T DoRafI=F ISym2E= 0.
 FoFCou: FMM=T IPFlag=           0 FMFlag=      100000 FMFlg1=        2001
         NFxFlg=           0 DoJE=F BraDBF=F KetDBF=F FulRan=T
         wScrn=  0.000000 ICntrl=       0 IOpCl=  0 I1Cent=           0 NGrid=           0
         NMat0=    1 NMatS0=      1 NMatT0=    0 NMatD0=    1 NMtDS0=    0 NMtDT0=    0
 Symmetry not used in FoFCou.
 FMM levels:  10  Number of levels for PrismC:   9
 Defaulting to unpruned grid for atomic number  46.
 Defaulting to unpruned grid for atomic number  46.
 Defaulting to unpruned grid for atomic number  46.
 Defaulting to unpruned grid for atomic number  46.
 Defaulting to unpruned grid for atomic number  46.
 Defaulting to unpruned grid for atomic number  46.
 Defaulting to unpruned grid for atomic number  46.
 Defaulting to unpruned grid for atomic number  46.
 Defaulting to unpruned grid for atomic number  46.
 Defaulting to unpruned grid for atomic number  46.
 Defaulting to unpruned grid for atomic number  46.
 Defaulting to unpruned grid for atomic number  46.
 Defaulting to unpruned grid for atomic number  46.
 Defaulting to unpruned grid for atomic number  46.
 Defaulting to unpruned grid for atomic number  46.
 Defaulting to unpruned grid for atomic number  46.
 E= -3089.64743850452    
 DIIS: error= 4.56D-02 at cycle   1 NSaved=   1.
 NSaved= 1 IEnMin= 1 EnMin= -3089.64743850452     IErMin= 1 ErrMin= 4.56D-02
 ErrMax= 4.56D-02  0.00D+00 EMaxC= 1.00D-01 BMatC= 3.40D+00 BMatP= 3.40D+00
 IDIUse=3 WtCom= 5.44D-01 WtEn= 4.56D-01
 Coeff-Com:  0.100D+01
 Coeff-En:   0.100D+01
 Coeff:      0.100D+01
 Gap=     0.353 Goal=   None    Shift=    0.000
 GapD=    0.353 DampG=1.000 DampE=0.250 DampFc=0.2500 IDamp=-1.
 Damping current iteration by 2.50D-01
 RMSDP=1.59D-02 MaxDP=5.96D+00              OVMax= 8.12D-01

 Cycle   2  Pass 1  IDiag  1:
 RMSU=  3.99D-03    CP:  9.95D-01
 E= -3089.91156330738     Delta-E=       -0.264124802865 Rises=F Damp=T
 DIIS: error= 9.61D-03 at cycle   2 NSaved=   2.
 NSaved= 2 IEnMin= 2 EnMin= -3089.91156330738     IErMin= 2 ErrMin= 9.61D-03
 ErrMax= 9.61D-03  0.00D+00 EMaxC= 1.00D-01 BMatC= 4.25D-01 BMatP= 3.40D+00
 IDIUse=3 WtCom= 9.04D-01 WtEn= 9.61D-02
 Coeff-Com: -0.184D-01 0.102D+01
 Coeff-En:   0.447D+00 0.553D+00
 Coeff:      0.263D-01 0.974D+00
 Gap=    -0.694 Goal=   None    Shift=    0.000
 RMSDP=5.37D-03 MaxDP=1.42D+00 DE=-2.64D-01 OVMax= 8.03D-01

 Cycle   3  Pass 1  IDiag  1:
 RMSU=  4.04D-03    CP:  9.61D-01  1.21D-01
 E= -3088.64873586597     Delta-E=        1.262827441407 Rises=F Damp=F
 DIIS: error= 3.38D-02 at cycle   3 NSaved=   3.
 NSaved= 3 IEnMin= 2 EnMin= -3089.91156330738     IErMin= 2 ErrMin= 9.61D-03
 ErrMax= 3.38D-02  0.00D+00 EMaxC= 1.00D-01 BMatC= 3.08D+00 BMatP= 4.25D-01
 IDIUse=2 WtCom= 0.00D+00 WtEn= 1.00D+00
 EnCoef did     3 forward-backward iterations
 Coeff-En:   0.230D+00 0.468D+00 0.301D+00
 Coeff:      0.230D+00 0.468D+00 0.301D+00
 Gap=     0.142 Goal=   None    Shift=    0.000
 RMSDP=5.77D-03 MaxDP=1.06D+00 DE= 1.26D+00 OVMax= 9.74D-01

 Cycle   4  Pass 1  IDiag  1:
 RMSU=  4.32D-03    CP:  9.61D-01  6.51D-01  2.10D-01
 E= -3088.28825989162     Delta-E=        0.360475974354 Rises=F Damp=F
 DIIS: error= 4.19D-02 at cycle   4 NSaved=   4.
 NSaved= 4 IEnMin= 2 EnMin= -3089.91156330738     IErMin= 2 ErrMin= 9.61D-03
 ErrMax= 4.19D-02  0.00D+00 EMaxC= 1.00D-01 BMatC= 3.36D+00 BMatP= 4.25D-01
 IDIUse=2 WtCom= 0.00D+00 WtEn= 1.00D+00
 EnCoef did   100 forward-backward iterations
 Coeff-En:   0.389D+00 0.586D-02 0.217D+00 0.388D+00
 Coeff:      0.389D+00 0.586D-02 0.217D+00 0.388D+00
 Gap=    -0.179 Goal=   None    Shift=    0.000
 RMSDP=4.12D-03 MaxDP=1.00D+00 DE= 3.60D-01 OVMax= 6.38D-01

 Cycle   5  Pass 1  IDiag  1:
 RMSU=  1.81D-03    CP:  9.62D-01  1.57D-01  3.49D-01  2.85D-01
 E= -3092.60536320011     Delta-E=       -4.317103308491 Rises=F Damp=F
 DIIS: error= 4.96D-03 at cycle   5 NSaved=   5.
 NSaved= 5 IEnMin= 5 EnMin= -3092.60536320011     IErMin= 5 ErrMin= 4.96D-03
 ErrMax= 4.96D-03  0.00D+00 EMaxC= 1.00D-01 BMatC= 8.16D-02 BMatP= 4.25D-01
 IDIUse=3 WtCom= 9.50D-01 WtEn= 4.96D-02
 Coeff-Com:  0.411D-01 0.213D+00 0.143D-01-0.636D-02 0.738D+00
 Coeff-En:   0.000D+00 0.000D+00 0.000D+00 0.000D+00 0.100D+01
 Coeff:      0.391D-01 0.202D+00 0.136D-01-0.605D-02 0.751D+00
 Gap=     0.137 Goal=   None    Shift=    0.000
[...]
 9,-0.00008653,0.00003886,-0.00003013,-0.00007882,-0.00007782,-0.000126
 21,-0.00019255,0.00005369,-0.00000775,-0.00008566,0.00001769,0.0000014
 9,-0.00001299,-0.00001088,-0.00001206,0.00002380,0.00000511,0.00000017
 ,-0.00002697,0.00001098,-0.00000268,0.00001426,-0.00000735,0.00000669,
 0.00002252,0.00000203,-0.00001239,-0.00000993,0.00000047,-0.00001697,-
 0.00000313,-0.00001178,0.00000958,0.00001085,0.00001785,-0.00001513,0.
 00001042,-0.00002394,-0.00001747,0.00004834,-0.00001235,-0.00004652,0.
 00001318,0.00001440,-0.00000129,0.00005667,-0.01415048,-0.02158101,0.0
 0038707,0.00033486,0.00002392,-0.00011034,0.00009428,0.00065720,0.0001
 4752,-0.00221294,-0.00307845,-0.00047386,-0.00994314,-0.01689494,0.055
 58587,-0.00005861,0.00002931,-0.00002456,0.00004393,-0.00004994,0.0000
 1478,-0.00001838,0.00001938,-0.00003575,0.00005688,-0.00001571,0.00002
 309,-0.00001004,0.00002599,0.00002858,0.00001082,0.00000072,0.00000480
 ,0.00002854,0.00005735,0.00002554,-0.00001544,-0.00002119,-0.00001010,
 0.00000031,-0.00000104,0.00000126,0.00000185,0.00001166,0.00000842,-0.
 00000764,-0.00001951,-0.00000362,0.00000822,0.00002952,-0.00001217,0.0
 0001230,0.00000676,-0.00003348,0.00000592,-0.00002281,-0.00003032,-0.0
 0001527,-0.00002846,0.00000428,0.00001242,0.00001632,-0.00002330,-0.00
 001312,0.00003232,0.00000666,0.00009156,-0.00006484,0.00002187,-0.0000
 4818,0.00002854,0.00000712,-0.00002886,0.00003754,0.00000194,0.0000018
 0,0.00000552,-0.00001013,-0.00001109,-0.00000028,0.00000393,-0.0000023
 2,-0.00000030,0.00000262,0.00000584,-0.00000487,0.00000429,0.00000550,
 0.00002160,0.00000053,-0.00000371,0.00002700,0.00003094,-0.00001332,-0
 .00000828,0.00003835,-0.00000640,-0.00002150,0.00001077,-0.00004271,-0
 .00007302,0.00000007,0.00002032,0.00002192,-0.00002481,-0.00000094,0.0
 0000043,0.00000462,-0.00000234,0.00000097,0.00000590,-0.00000223,-0.00
 000496,-0.00000049,0.00003925,-0.00005274,-0.00006270,-0.00034451,0.00
 006085,-0.00018197,-0.00001317,0.00002116,0.00003688,-0.00003452,-0.00
 003187,0.00006360,-0.00250816,0.00461081,-0.00076930,-0.00370069,-0.00
 014332,-0.00321145,0.00005565,-0.00002848,0.00005463,-0.00004426,0.000
 04627,0.00002546,0.00003382,-0.00001829,0.00000457,0.00002165,-0.00002
 497,0.00001649,0.00003627,0.00001885,0.00000032,0.00001730,-0.00000374
 ,-0.00001107,-0.00002495,-0.00000117,-0.00000504,-0.00927713,-0.003616
 84,0.01904492,-0.00028281,0.00014867,0.00141313,0.00030351,-0.00001441
 ,-0.00048912,0.01113540,0.00208038,-0.02276599,0.00051033,0.00005289,-
 0.00134739,-0.00003857,0.00012571,0.00005874,0.00001911,-0.00005308,-0
 .00000513,0.00003087,-0.00001331,-0.00002233,0.00000841,-0.00000111,0.
 00000030,0.00000067,-0.00000421,0.00002009,-0.00004219,0.00002261,-0.0
 0003215,0.00003287,0.00000007,-0.00001969,0.00001082,0.00000271,-0.000
 01133,-0.00000499,-0.00000462,0.00000454,-0.00000197,0.00000511,0.0000
 0570,-0.00000159,-0.00000394,0.00000470,0.00000016,-0.00000504,-0.0000
 1068,0.00000020,0.00000564,0.00001428,0.00000364,0.00000653,0.00000822
 ,0.00000175,-0.00001049,-0.00000110,-0.00001255,-0.00000536,0.00000099
 ,0.00002660,-0.00002497,-0.00001496,0.00000675,0.00003766,-0.00002383,
 0.00000402,-0.00002041,0.00004219,-0.09793649,-0.01005035,0.10654398,0
 .00011935,-0.00060431,-0.00009503,0.00094630,-0.00000732,-0.00041931,0
 .00086373,0.00019355,0.00062877,0.00091909,-0.00011943,0.00057245,0.10
 574403,0.00004260,-0.00001875,0.00001196,-0.00002663,0.00002149,-0.000
 01072,0.00000847,-0.00001320,0.00002333,-0.00003598,0.00000554,-0.0000
 1846,-0.00000291,-0.00000874,-0.00001793,0.00000663,-0.00000233,0.0000
 0428,-0.00000810,-0.00001944,-0.00001447,0.00000754,0.00001244,0.00000
 201,0.00000096,0.00000061,-0.00000009,0.00000090,-0.00000620,-0.000002
 73,0.00000501,0.00000903,-0.00000219,-0.00000358,-0.00001397,0.0000063
 8,-0.00000408,-0.00000292,0.00001100,-0.00000254,0.00000893,0.00001167
 ,0.00000947,0.00001499,-0.00000169,-0.00000768,-0.00000875,0.00001306,
 0.00000244,-0.00001322,-0.00000383,-0.00003426,0.00003538,-0.00001315,
 0.00001755,-0.00001785,-0.00000020,0.00001071,-0.00002031,-0.00000051,
 -0.00000021,-0.00000299,0.00000375,0.00000304,0.,-0.00000107,0.0000014
 4,0.00000074,-0.00000066,-0.00000212,0.00000120,-0.00000103,-0.0000034
 7,-0.00001103,0.00000031,0.00000111,-0.00000996,-0.00001151,0.00000512
 ,0.00000339,-0.00001505,0.00000226,0.00001034,-0.00000433,0.00001228,0
 .00003336,0.00000193,-0.00000248,-0.00000587,0.00000912,0.00000025,-0.
 00000040,-0.00000316,-0.00000054,0.00000033,-0.00000173,0.00000148,0.0
 0000145,0.00000010,-0.00001499,0.00001061,0.00004447,0.00001210,-0.000
 06291,0.00037182,-0.00005622,-0.00002393,-0.00001194,0.00001286,0.0000
 3789,-0.00003675,0.00315478,-0.00388436,0.00065312,0.00027341,0.000530
 39,0.00032534,-0.00004497,0.00000344,-0.00000759,0.00002386,0.00002115
 ,-0.00001498,0.00004126,-0.00000227,-0.00005685,0.00001370,0.00002915,
 0.00000903,-0.00002431,-0.00001636,-0.00000093,-0.00000693,0.00000069,
 -0.00000415,0.00000738,-0.00000266,-0.00001929,0.01090326,0.00171969,-
 0.02384318,0.00066364,0.00016403,-0.00120236,0.00024135,0.00013620,-0.
 00011972,-0.00033754,-0.00136190,-0.00108538,0.00001480,0.00038531,0.0
 0019359,0.00022789,0.00024064,-0.00047395,-0.00000745,0.00000408,-0.00
 001119,-0.00001021,0.00000908,-0.00000817,-0.00000104,0.00000053,0.000
 00447,-0.00000642,0.00000921,0.00000513,0.00000134,0.00000462,-0.00001
 573,-0.00001335,-0.00000501,0.00001849,-0.00000563,-0.00000435,0.00000
 337,0.00000263,0.00000365,-0.00000762,-0.00000296,0.00000090,0.0000071
 4,-0.00000095,0.00000120,-0.00000118,-0.00000003,0.00000247,0.00000731
 ,0.00000006,-0.00000295,-0.00001087,-0.00000323,-0.00000389,-0.0000064
 0,-0.00000209,0.00000573,0.00000382,0.00000920,0.00000332,0.00000094,-
 0.00001634,0.00000714,0.00000541,-0.00000053,-0.00001098,0.00001410,-0
 .00000132,0.00000621,-0.00001064,-0.01086394,-0.04859239,0.02127080,-0
 .00048562,0.00081855,0.00043671,-0.00062003,0.00083548,-0.00026845,-0.
 00017950,0.00000854,0.00033769,0.00042995,0.00032291,-0.00032867,0.007
 80529,0.05046707,0.00011076,-0.00001113,-0.00004342,-0.00014300,0.0000
 2947,0.00000202,0.00002923,0.00000697,0.00001644,-0.00002778,0.0000118
 5,-0.00001405,0.00002043,-0.00001329,-0.00001681,-0.00000306,0.0000027
 7,-0.00000074,-0.00003553,-0.00006920,-0.00002634,0.00001620,0.0000011
 1,0.00002038,-0.00000190,0.00000160,-0.00000151,0.00001540,0.00000502,
 -0.00000575,-0.00000462,0.00002235,0.00000497,-0.00000919,-0.00002407,
 0.00001189,-0.00001468,-0.00000741,0.00004055,-0.00000675,0.00002812,0
 .00003522,0.00001593,0.00003518,-0.00000522,-0.00001420,-0.00002085,0.
 00002573,0.00006961,-0.00010874,0.00003456,-0.00009171,0.00009890,-0.0
 0011130,0.00002893,-0.00002660,0.00002865,0.00003556,-0.00005600,0.000
 01446,-0.00000007,-0.00001154,0.00002102,0.00000998,-0.00000069,-0.000
 00277,0.00000579,0.00000187,-0.00000198,-0.00000653,0.00000548,-0.0000
 0556,-0.00000489,-0.00002582,-0.00000041,0.00000440,-0.00003281,-0.000
 03732,0.00001488,0.00000832,-0.00004161,0.00000709,0.00001665,-0.00001
 013,0.00005053,0.00009132,0.00000711,-0.00002668,-0.00002422,0.0000250
 5,0.00000128,-0.00000076,-0.00000446,0.00000341,-0.00000174,-0.0000063
 2,0.00000276,0.00000557,0.00000108,-0.00015076,0.00016109,0.00026257,-
 0.00020768,0.00036238,0.00052345,-0.00000351,-0.00002968,-0.00003392,0
 .00001765,0.00002007,-0.00000599,0.00029972,-0.00103460,0.00145070,-0.
 00517558,-0.00027676,-0.00201013,0.00002833,-0.00007395,-0.00004679,-0
 .00003482,0.00006639,0.00003296,-0.00000032,0.00000861,0.00002817,0.00
 001122,0.00002283,0.00000771,-0.00000799,-0.00002629,0.00000274,-0.000
 00239,-0.00000574,-0.00001071,-0.00004876,-0.00004126,-0.00001509,0.00
 025981,0.00064853,-0.00186258,0.00002852,0.00017331,-0.00022867,-0.000
 01625,0.00005572,0.00002699,0.01106465,0.00214816,-0.01917274,0.000727
 01,-0.00006054,-0.00133100,-0.00008194,0.00003068,0.00033996,0.0000291
 3,-0.00007082,0.00000770,0.00003275,0.00000362,-0.00003770,0.00000290,
 -0.00000923,-0.00000775,0.00000997,0.00000517,-0.00002194,-0.00002597,
 -0.00004376,-0.00001891,0.00000190,-0.00000088,-0.00000869,0.00000107,
 -0.00000334,-0.00000391,0.00000469,0.00000779,-0.00001101,-0.00000256,
 -0.00000385,-0.00000322,0.00000062,0.00000368,0.00000782,0.00000537,0.
 00000250,-0.00000117,-0.00000815,-0.00000693,-0.00001169,-0.00000432,-
 0.00000845,-0.00001318,0.00000880,-0.00000653,-0.00000201,0.00000672,0
 .00001947,-0.00000720,0.00001395,-0.00004036,-0.00004080,0.00004009,0.
 00006210,-0.00003102,0.00001356,-0.00002060,0.00005496,0.10530957,0.01
 936854,-0.26326706,0.00022421,-0.00023205,0.00053664,-0.00008101,-0.00
 030481,0.00020588,-0.00001231,0.00041447,0.00060669,0.00012865,-0.0004
 6556,0.00069860,-0.11194236,-0.02049132,0.28338325,0.00003549,0.000003
 08,-0.00001664,-0.00004580,0.00000693,0.00000281,0.00000696,0.00000632
 ,0.00000411,-0.00000560,0.00000846,-0.00000384,0.00000772,-0.00000063,
 -0.00000098,-0.00000579,-0.00000165,0.00000013,-0.00001458,-0.00003568
 ,-0.00001074,0.00000550,0.00000392,0.00000562,0.00000035,-0.00000046,-
 0.00000142,0.00000305,0.00000191,-0.00000485,-0.00000101,0.00000633,0.
 00000123,-0.00000351,-0.00001115,0.00000365,-0.00000327,-0.00000235,0.
 00000957,-0.00000143,0.00000461,0.00000591,0.00000306,0.00000502,-0.00
 000066,-0.00000401,-0.00000738,0.00000579,0.00002141,-0.00003718,0.000
 01567,-0.00001298,0.00002606,-0.00005500,-0.00000396,-0.00000670,0.000
 02183,0.00000730,-0.00001286,0.00000952,0.00000048,-0.00000331,0.00000
 766,0.00000065,-0.00000065,0.00000034,0.00000224,0.00000047,-0.0000004
 3,-0.00000191,0.00000175,-0.00000143,0.00000020,-0.00000276,-0.0000001
 4,0.00000092,-0.00000561,-0.00000701,0.00000358,0.00000247,-0.00000981
 ,0.00000229,0.00000873,-0.00000326,0.00001849,0.00004108,0.00000215,-0
 .00000797,-0.00001228,0.00001200,0.00000036,-0.00000054,-0.00000398,0.
 00000049,0.00000080,-0.00000280,0.00000242,0.00000204,0.00000046,-0.00
 002644,-0.00002494,0.00006965,-0.00006942,0.00010263,-0.00008034,-0.00
 001090,-0.00001949,0.00000828,-0.00000158,0.00001225,-0.00003081,0.001
 25435,0.00010760,-0.00074449,0.00080087,0.00018330,0.00145331,-0.00020
 148,0.00004008,0.00003138,0.00000563,0.00001342,-0.00000562,0.00003035
 ,0.00000248,-0.00002800,0.00000667,0.00002048,0.00000435,0.00001364,-0
 .00001350,0.00000482,0.00001576,0.00000085,0.00000746,-0.00000601,0.00
 000990,0.00006726,0.01014605,0.02114278,-0.00047270,-0.00000114,-0.000
 15486,-0.00027811,-0.00018030,-0.00044371,0.00000342,-0.01334232,-0.02
 090999,0.00030750,0.00001601,0.00035674,0.00018656,0.00060393,0.000346
 26,-0.00059259,-0.00000612,-0.00002228,-0.00000376,0.00000808,0.000005
 79,-0.00001338,-0.00000049,0.00000076,0.00000785,0.00000788,0.00000698
 ,-0.00000645,-0.00000560,-0.00001764,-0.00000787,-0.00000030,0.0000016
 2,0.00000565,-0.00000197,-0.00000161,0.00000018,0.00000391,0.00000423,
 -0.00000726,-0.00000245,-0.00000104,0.00000546,-0.00000316,0.00000147,
 -0.00000008,0.00000417,-0.00000161,-0.00000651,-0.00000238,0.00000143,
 -0.00000132,-0.00000095,0.00000324,0.00000372,0.00000773,-0.00000414,-
 0.00000815,-0.00001551,0.00000856,-0.00000961,0.00000603,0.00000119,-0
 .00000965,-0.00000399,0.00001809,0.00000978,0.00000263,-0.00000170,-0.
 00000781,-0.10703986,-0.11086331,0.00449995,0.00100655,-0.00049588,-0.
 00023552,-0.00232086,0.00401486,0.00105699,0.00033599,0.00008940,0.000
 52606,-0.00262832,0.00018088,-0.00423070,-0.00662855,-0.01113782,-0.00
 051581,0.11821276,0.00004260,0.00000503,0.00001232,-0.00009969,-0.0000
 3645,-0.00001583,-0.00000545,0.00000628,0.00001241,-0.00001200,-0.0000
 2137,-0.00000015,-0.00000320,0.00001122,-0.00002478,0.00002945,-0.0000
 0138,0.00000883,-0.00001403,-0.00003022,-0.00000813,0.00000123,-0.0000
 0636,0.00000806,0.00000242,0.00000013,0.00000021,0.00002507,0.00001750
 ,-0.00000719,-0.00000549,0.00000917,-0.00000825,-0.00000125,-0.0000148
 6,0.00000036,-0.00000014,0.00000264,0.00000227,-0.00000072,-0.00000654
 ,-0.00000053,0.00000119,-0.00001920,0.00000137,-0.00001542,0.00000235,
 0.00002444,0.00002151,-0.00000518,-0.00001948,-0.00005039,-0.00005048,
 0.00006246,0.00004311,0.00001670,-0.00004404,0.00001436,0.00001250,-0.
 00001017,-0.00000280,0.00000097,-0.00000140,0.00000848,0.00000458,-0.0
 0000483,-0.00000150,-0.00000067,-0.00000062,0.00000340,-0.00000409,-0.
 00000016,0.00000500,0.00001586,-0.00000271,-0.00000061,0.00000751,0.00
 000491,0.00000163,0.00000257,-0.00000422,0.00000197,0.00001419,-0.0000
 0162,0.00001214,0.00005703,0.00002123,0.00000428,-0.00000279,-0.000000
 12,0.00000093,-0.00000085,-0.00000344,-0.00000276,0.00000219,-0.000000
 11,0.00000369,0.00000172,-0.00000067,-0.00011871,-0.00001964,0.0000602
 3,0.00023432,0.00003538,-0.00017644,-0.00003857,-0.00005971,-0.0000124
 9,0.00003303,0.00000571,-0.00006591,-0.00134434,0.00107327,0.00087622,
 0.00038207,0.00020829,0.00043150,0.00001393,0.00004005,0.00026089,0.00
 002200,0.00002657,-0.00000007,0.00007505,0.00000095,-0.00008219,0.0000
 2528,0.00005307,0.00001636,-0.00001471,-0.00000697,-0.00000026,0.00000
 418,0.00001330,0.00004781,0.00001265,0.00002089,0.00002340,-0.01159238
 ,-0.02280262,0.00128920,0.00026164,0.00040323,0.00022131,0.00060527,0.
 00036636,-0.00087340,0.00049495,0.00028266,0.00053463,0.00011658,0.000
 22525,-0.00008276,0.00012649,0.00003105,-0.00064013,-0.00001555,-0.000
 01530,-0.00000761,-0.00000196,0.00000924,-0.00001323,0.00000466,-0.000
 00070,0.00001457,-0.00000205,0.00001607,0.00001501,-0.00003635,0.00001
 154,-0.00004268,0.00000298,-0.00001045,0.00000444,-0.00000462,-0.00000
 578,0.00000016,0.00000730,0.00000587,-0.00001748,-0.00000627,0.0000010
 4,0.00001640,-0.00000257,0.00000383,-0.00000849,0.00000130,-0.00000231
 ,-0.00000021,0.00000081,0.00000070,-0.00000558,0.00000498,0.00000431,-
 0.00000624,0.00000342,-0.00000513,-0.00000507,0.00000645,0.00000058,-0
 .00000370,0.00000272,-0.00000021,0.00000312,0.00000319,-0.00000360,0.0
 0000340,-0.00000339,0.00000253,-0.00000505,-0.11036543,-0.24431491,0.0
 0539495,0.00010305,0.00081521,0.00030916,0.00392036,-0.00288498,-0.000
 97976,-0.00014779,0.00080866,-0.00036834,0.00018864,0.00127790,0.00024
 474,-0.00041710,-0.00179920,-0.00026549,0.11744743,0.26619832,-0.00003
 120,0.00001300,-0.00000033,0.00003148,-0.00002157,-0.00000450,-0.00001
 554,-0.00000103,-0.00001003,0.00001469,-0.00000352,0.00001055,-0.00000
 645,0.00001838,0.00001862,0.00000250,-0.00000172,0.00000560,0.00001805
 ,0.00003603,0.00001061,-0.00000591,-0.00000257,-0.00000932,0.00000160,
 -0.00000087,0.00000059,-0.00000306,0.00000063,0.00000009,-0.00000062,-
 0.00000842,-0.00000310,0.00000394,0.00000952,-0.00000506,0.00000634,0.
 00000318,-0.00001718,0.00000275,-0.00001198,-0.00001483,-0.00000615,-0
 .00001414,0.00000218,0.00000474,0.00000719,-0.00000857,-0.00001883,0.0
 0002945,-0.00000830,0.00004175,-0.00003308,0.00003036,-0.00001806,0.00
 000963,-0.00000504,-0.00001434,0.00001822,-0.00000311,-0.00000011,0.00
 000389,-0.00000747,-0.00000512,0.,0.00000137,-0.00000175,0.00000027,0.
 00000128,0.00000331,-0.00000283,0.00000325,0.00000227,0.00001086,0.000
 00025,-0.00000192,0.00001403,0.00001578,-0.00000628,-0.00000351,0.0000
 1769,-0.00000318,-0.00000639,0.00000433,-0.00002442,-0.00004095,-0.000
 00567,0.00001277,0.00001078,-0.00000862,-0.00000081,0.00000046,0.00000
 073,-0.00000176,0.00000070,0.00000259,-0.00000151,-0.00000304,-0.00000
 012,0.00004270,-0.00008745,-0.00006281,0.00006307,0.00004102,-0.000201
 97,-0.00002214,-0.00001239,0.00000787,-0.00001802,-0.00000106,-0.00001
 894,-0.00089156,-0.00079103,0.00044397,-0.00041069,-0.00132191,0.00172
 178,0.00002996,0.00023696,0.00003270,0.00001974,0.00000613,-0.00000578
 ,0.00003624,-0.00001493,-0.00005420,0.00001340,0.00001246,0.00000887,0
 .00002070,0.00000455,0.00000325,0.00001544,0.00000877,0.00000770,0.000
 00815,0.00001729,0.00005104,-0.00178716,-0.00298318,-0.00075072,0.0000
 5275,0.00015057,0.00003885,0.00023274,0.00002020,0.00010198,-0.0123115
 8,-0.02117043,-0.00079111,0.00005589,0.00034560,0.00027862,0.00026296,
 0.00052930,-0.00034092,-0.00002289,0.00000361,-0.00001456,-0.00000550,
 -0.00000062,0.00000123,0.00000052,0.00000403,0.00001580,-0.00000416,0.
 00000104,0.00002876,0.00000752,0.00001877,-0.00002782,0.00000975,-0.00
 000091,0.00000231,-0.00000037,-0.00000037,-0.00000002,0.00000057,-0.00
 000124,-0.00000334,-0.00000341,0.00000304,0.00001080,-0.00000331,-0.00
 000138,-0.00000256,0.00000090,-0.00000306,-0.00000572,0.00000165,0.000
 00514,0.00000598,0.00000114,0.00000801,0.00000715,0.00000087,-0.000001
 61,-0.00000142,-0.00000906,-0.00000458,0.00000240,0.00000498,0.0000110
 0,0.00000389,-0.00001830,0.00000393,0.00001640,-0.00000485,0.00000212,
 -0.00001472,0.00530284,0.00678730,-0.04859630,0.00014166,0.00048411,0.
 00016609,0.00022487,-0.00058936,0.00083569,0.00061175,0.00032513,0.000
 81418,-0.00351577,-0.00032003,-0.00308043,0.01283539,0.02435019,0.0000
 7465,-0.00094854,-0.00610537,0.04927676\\-0.00000522,-0.00000087,-0.00
 000896,0.00000394,-0.00000846,0.00000410,0.00000369,0.00000095,0.00000
 101,0.00000151,0.00000144,-0.00000146,0.00000080,-0.00000123,-0.000000
 12,0.00000018,-0.00000004,-0.00000025,-0.00000035,0.00000009,-0.000000
 29,-0.00000050,0.00000054,-0.00000029,-0.00000016,0.00000009,-0.000000
 42,-0.00000085,0.00000113,-0.00000105,-0.00000160,0.00000115,-0.000001
 02,-0.00000076,-0.00000035,0.,-0.00000008,-0.00000005,-0.00000067,-0.0
 0000093,0.00000017,-0.00000096,0.00000070,-0.00000027,0.00000019,-0.00
 000045,-0.00000045,-0.00000048,-0.00000091,0.00000344,0.00000428,0.000
 00115,-0.00000052,0.00000049,0.00000050,-0.00000024,-0.00000046,-0.000
 00003,0.00000004,-0.00000085,0.00000010,0.,-0.00000070,-0.00000007,-0.
 00000012,-0.00000088,0.00000008,-0.00000012,-0.00000063,0.00000031,-0.
 00000032,-0.00000052,-0.00000020,0.00000021,-0.00000036,-0.00000054,0.
 00000023,-0.00000038,-0.00000068,0.00000013,-0.00000042,-0.00000030,0.
 00000048,-0.00000025,0.00000005,-0.00000018,-0.00000028,0.00000012,-0.
 00000002,-0.00000043,-0.00000003,-0.00000001,-0.00000025,0.,-0.0000000
 9,-0.00000048,0.00000016,-0.00000009,-0.00000035,0.00000092,-0.0000006
 9,-0.00000219,0.00000121,-0.00000103,0.00000085,0.00000111,0.00000050,
 0.00000157,-0.00000046,-0.00000011,0.00000206,-0.00000025,-0.00000038,
 -0.00000091,-0.00000078,-0.00000044,0.00000006,0.00000147,-0.00000074,
 0.00000102,-0.00000099,-0.00000105,0.00000047,0.00000047,0.00000074,-0
 .00000095,-0.00000119,0.00000068,-0.00000087,-0.00000035,0.00000052,0.
 00000013,0.00000028,-0.00000099,0.00000052,-0.00000011,0.00000058,0.00
 000056,0.00000032,0.00000002,0.00000020,-0.00000174,-0.00000028,-0.000
 00049,-0.00000075,0.00000085,0.00000066,0.00000016,0.00000033,0.000000
 04,0.00000020,0.00000043,0.00000065,0.00000092,0.00000005,0.00000014,0
 .00000056,0.00000054,0.00000054,0.00000002,-0.00000025,-0.00000016,-0.
 00000085,-0.00000022,0.00000088,0.00000029,0.00000006,0.00000037,-0.00
 000031,0.00000037,0.00000118,-0.00000138,0.00000246,-0.00000041,0.0000
 0048,-0.00000167,0.00000050,0.00000114,0.00000025,0.00000127,-0.000001
 08,0.00000221,-0.00000050,-0.00000106,0.00000016,0.00000027,-0.0000004
 1,0.00000047,0.00000038,0.00000011,-0.00000025,0.00000040,-0.00000021,
 0.00000005,0.00000030,0.00000019,0.00000098,-0.00000040,-0.00000097,0.
 00000023,0.00000031,-0.00000014,0.00000018,0.00000044,-0.00000011,-0.0
 0000010,0.00000051,-0.00000036,0.00000005,0.00000063,0.00000063,-0.000
 00005,0.00000037,0.00000086,-0.00000020,-0.00000002,0.00000062,-0.0000
 0005,0.00000058,0.00000022,-0.00000022,0.00000058,0.00000063,-0.000000
 17,0.00000057,0.00000044,-0.00000025,0.00000028,0.00000059,-0.00000018
 ,0.00000077\\\@


 EDUCATION IS NOT TRAINING BUT RATHER THE PROCESS THAT EQUIPS YOU TO
 ENTERTAIN YOURSELF, A FRIEND, OR AN IDEA.  -- WALLACE STERLING
 Job cpu time:       0 days 14 hours  0 minutes 50.9 seconds.
 File lengths (MBytes):  RWF=   5034 Int=      0 D2E=      0 Chk=     46 Scr=      1
 Normal termination of Gaussian 09 at Sat Mar  2 00:08:30 2024.
