 Entering Gaussian System, Link 0=g09
 Input=ts-neopentyl-v5-released.com
 Output=ts-neopentyl-v5-released.log
 Initial command:
 /cluster/apps/gaussian/g09/l1.exe "/cluster/scratch/sroediger/michael/newer_ts/Gau-32248.inp" -scrdir="/cluster/scratch/sroediger/michael/newer_ts/"
 Entering Link 1 = /cluster/apps/gaussian/g09/l1.exe PID=     32258.
  
 Copyright (c) 1988,1990,1992,1993,1995,1998,2003,2009,2013,
            Gaussian, Inc.  All Rights Reserved.
  
 This is part of the Gaussian(R) 09 program.  It is based on
 the Gaussian(R) 03 system (copyright 2003, Gaussian, Inc.),
 the Gaussian(R) 98 system (copyright 1998, Gaussian, Inc.),
 the Gaussian(R) 94 system (copyright 1995, Gaussian, Inc.),
 the Gaussian 92(TM) system (copyright 1992, Gaussian, Inc.),
 the Gaussian 90(TM) system (copyright 1990, Gaussian, Inc.),
 the Gaussian 88(TM) system (copyright 1988, Gaussian, Inc.),
 the Gaussian 86(TM) system (copyright 1986, Carnegie Mellon
 University), and the Gaussian 82(TM) system (copyright 1983,
 Carnegie Mellon University). Gaussian is a federally registered
 trademark of Gaussian, Inc.
  
 This software contains proprietary and confidential information,
 including trade secrets, belonging to Gaussian, Inc.
  
 This software is provided under written license and may be
 used, copied, transmitted, or stored only in accord with that
 written license.
  
 The following legend is applicable only to US Government
 contracts under FAR:
  
                    RESTRICTED RIGHTS LEGEND
  
 Use, reproduction and disclosure by the US Government is
 subject to restrictions as set forth in subparagraphs (a)
 and (c) of the Commercial Computer Software - Restricted
 Rights clause in FAR 52.227-19.
  
 Gaussian, Inc.
 340 Quinnipiac St., Bldg. 40, Wallingford CT 06492
  
  
 ---------------------------------------------------------------
 Warning -- This program may not be used in any manner that
 competes with the business of Gaussian, Inc. or will provide
 assistance to any competitor of Gaussian, Inc.  The licensee
 of this program is prohibited from giving any competitor of
 Gaussian, Inc. access to this program.  By using this program,
 the user acknowledges that Gaussian, Inc. is engaged in the
 business of creating and licensing software in the field of
 computational chemistry and represents and warrants to the
 licensee that it is not a competitor of Gaussian, Inc. and that
 it will not use this program in any manner prohibited above.
 ---------------------------------------------------------------
  

 Cite this work as:
 Gaussian 09, Revision D.01,
 M. J. Frisch, G. W. Trucks, H. B. Schlegel, G. E. Scuseria, 
 M. A. Robb, J. R. Cheeseman, G. Scalmani, V. Barone, B. Mennucci, 
 G. A. Petersson, H. Nakatsuji, M. Caricato, X. Li, H. P. Hratchian, 
 A. F. Izmaylov, J. Bloino, G. Zheng, J. L. Sonnenberg, M. Hada, 
 M. Ehara, K. Toyota, R. Fukuda, J. Hasegawa, M. Ishida, T. Nakajima, 
 Y. Honda, O. Kitao, H. Nakai, T. Vreven, J. A. Montgomery, Jr., 
 J. E. Peralta, F. Ogliaro, M. Bearpark, J. J. Heyd, E. Brothers, 
 K. N. Kudin, V. N. Staroverov, T. Keith, R. Kobayashi, J. Normand, 
 K. Raghavachari, A. Rendell, J. C. Burant, S. S. Iyengar, J. Tomasi, 
 M. Cossi, N. Rega, J. M. Millam, M. Klene, J. E. Knox, J. B. Cross, 
 V. Bakken, C. Adamo, J. Jaramillo, R. Gomperts, R. E. Stratmann, 
 O. Yazyev, A. J. Austin, R. Cammi, C. Pomelli, J. W. Ochterski, 
 R. L. Martin, K. Morokuma, V. G. Zakrzewski, G. A. Voth, 
 P. Salvador, J. J. Dannenberg, S. Dapprich, A. D. Daniels, 
 O. Farkas, J. B. Foresman, J. V. Ortiz, J. Cioslowski, 
 and D. J. Fox, Gaussian, Inc., Wallingford CT, 2013.
 
 ******************************************
 Gaussian 09:  ES64L-G09RevD.01 24-Apr-2013
                 3-Mar-2024 
 ******************************************
 %nprocshared=16
 Will use up to   16 processors via shared memory.
 %mem=32GB
 %oldchk=ts-neopentyl-v5.chk
 %chk=ts-neopentyl-v5-released.chk
 Copying data from "ts-neopentyl-v5.chk" to current chk file "ts-neopentyl-v5-released.chk".
 ----------------------------------------------------------------------
 #p opt(ts,readfc,noeigentest,nofreeze) freq=noraman geom=allcheck pbe1
 pbe genecp temperature=298 integral(grid=ultrafine) empiricaldispersio
 n=gd3bj
 ----------------------------------------------------------------------
 1/5=1,10=3,11=1,14=-1,18=20,26=4,29=2007,38=1,112=298000/1,3;
 2/9=110,12=2,40=1/2;
 3/5=7,11=2,14=-4,16=1,17=8,25=1,30=1,71=1,74=-13,75=-5,124=41/1,2,3;
 4//1;
 5/5=2,38=5/2;
 6/7=2,8=2,9=2,10=2,28=1/1;
 7//1,2,3,16;
 1/5=1,11=1,14=-1,18=20,26=4/3(2);
 2/9=110/2;
 99//99;
 2/9=110/2;
 3/5=7,6=1,11=2,14=-2,16=1,17=8,25=1,30=1,71=1,74=-13,75=-5,82=7,124=41/1,2,3;
 4/5=5,16=3,69=1/1;
 5/5=2,38=5/2;
 7//1,2,3,16;
 1/5=1,11=1,14=-1,18=20,26=4/3(-5);
 2/9=110/2;
 6/7=2,8=2,9=2,10=2,19=2,28=1/1;
 99/9=1/99;
 Leave Link    1 at Sun Mar  3 12:35:02 2024, MaxMem=  4294967296 cpu:         3.3
 (Enter /cluster/apps/gaussian/g09/l101.exe)
 Structure from the checkpoint file:  "ts-neopentyl-v5-released.chk"
 -----
 title
 -----
 Charge =  0 Multiplicity = 1
 Redundant internal coordinates found in file.
 C,0,1.4221992478,-0.3188484301,1.1606049463
 C,0,1.3347320144,-0.6872803159,2.5145952614
 H,0,0.7708580359,-1.5748932706,2.806311994
 C,0,1.9225123393,0.124861348,3.4746497463
 H,0,1.8168562096,-0.1016950258,4.5376997941
 C,0,2.6471548183,1.2752139996,3.1123990645
 C,0,2.8504588224,1.5654326918,1.7634038731
 H,0,3.4893982989,2.3884779239,1.4483378257
 C,0,2.2779716048,0.740605134,0.7838444952
 C,0,2.6180678919,0.7143338384,-0.6269456661
 C,0,3.1978916261,1.7084775585,-1.4077619369
 C,0,3.4947631226,1.4694794796,-2.7457475254
 C,0,3.2002776168,0.2282921343,-3.312369416
 C,0,2.606533208,-0.7802898933,-2.5537730641
 C,0,2.3486956125,-0.5525496181,-1.2031892541
 N,0,1.7163060518,-1.4466513433,-0.3242844833
 S,0,2.3286816434,-2.9425922732,0.0848057285
 O,0,1.3478283199,-3.5294840043,0.9886559195
 O,0,2.8018633861,-3.6404685274,-1.0937536342
 C,0,3.7647899767,-2.5924008015,1.1258429056
 Cl,0,5.0558101767,-1.7664816792,0.2623932697
 H,0,4.1081527973,-3.5786692762,1.4674575435
 H,0,3.422604628,-1.9814331408,1.9712376321
 F,0,2.2660075942,-1.9021972564,-3.1576850657
 F,0,3.4414488066,0.0291374981,-4.597181671
 F,0,4.032846374,2.4192140735,-3.4937433481
 F,0,3.4623316966,2.9108857155,-0.9017737779
 O,0,3.1419524209,2.0099797833,4.1327178231
 C,0,3.8958969641,3.1479515797,3.8278021305
 H,0,3.3159579231,3.8778349545,3.2346521922
 H,0,4.8166071352,2.8961719499,3.2715997108
 H,0,4.175227778,3.6084105157,4.7839741317
 Pd,0,-0.1989835014,-0.8661265318,0.0564629506
 P,0,-2.174329154,0.2295814541,0.4658356202
 C,0,-3.2846543149,0.1524290611,-1.0309418685
 C,0,-3.2252520063,-0.6040063239,1.7984487491
 C,0,-1.9627757534,2.0763511371,0.8166564565
 C,0,-2.7503352301,-0.5037045668,-2.3268535818
 H,0,-3.6217115829,1.1758711771,-1.2618708679
 H,0,-4.1895939874,-0.3943674,-0.7232609996
 C,0,-4.7030641814,-0.1498125806,1.8190244082
 C,0,-3.1469405355,-2.1028324059,1.4774430314
 C,0,-2.573957951,-0.3872182612,3.1664353128
 C,0,-0.9689179541,2.2749647647,1.9648420122
 C,0,-1.3287182621,2.676770748,-0.4417182589
 C,0,-3.2737719963,2.792223213,1.1323959357
 C,0,-2.3593758973,-1.9617696536,-2.087323256
 C,0,-3.8948672077,-0.4666367579,-3.3460866634
 C,0,-1.5527637722,0.2516500125,-2.9044924439
 H,0,-4.935789645,0.6481600173,1.1026931056
 H,0,-5.3772752108,-0.9887566047,1.5906215692
 H,0,-4.983889808,0.2256137294,2.8143916927
 H,0,-3.7149863799,-2.6663029917,2.2359287958
 H,0,-3.5810435499,-2.3418214629,0.4957561171
 H,0,-2.1059796508,-2.4644753107,1.4844819518
 H,0,-2.7237036852,0.6349356383,3.5394183848
 H,0,-1.4929702586,-0.5914136825,3.1378231444
 H,0,-3.0312765397,-1.0732069804,3.8981817104
 H,0,-0.0272862713,1.7424767062,1.778164354
 H,0,-0.7368352807,3.3492021483,2.0501054007
 H,0,-1.3607995355,1.9467796724,2.9342597031
 H,0,-1.093967095,3.7369054637,-0.2531277266
 H,0,-0.3894616006,2.1623478448,-0.6976691682
 H,0,-1.9947644257,2.6370921267,-1.3145967181
 H,0,-3.0805933214,3.8723115221,1.2427802865
 H,0,-4.0214222524,2.6768077681,0.3323106397
 H,0,-3.7199575967,2.4409630919,2.0734454459
 H,0,-3.2081536566,-2.5580767695,-1.7182928994
 H,0,-1.5397776917,-2.0617019503,-1.345203539
 H,0,-1.9964574364,-2.4252473861,-3.0169781024
 H,0,-4.2059336982,0.5689578663,-3.5568556909
 H,0,-3.5847747788,-0.9246317085,-4.2981958125
 H,0,-4.775974864,-1.0167653414,-2.978872474
 H,0,-1.2051750951,-0.2347720817,-3.8288819232
 H,0,-1.8103643284,1.2935679674,-3.1487256401
 H,0,-0.7049767375,0.2640048596,-2.1975515085
 Recover connectivity data from disk.
 Any frozen variables have been unfrozen.
 NAtoms=     76 NQM=       76 NQMF=       0 NMMI=      0 NMMIF=      0
                NMic=       0 NMicF=      0.
                    Isotopes and Nuclear Properties:
 (Nuclear quadrupole moments (NQMom) in fm**2, nuclear magnetic moments (NMagM)
  in nuclear magnetons)

  Atom         1           2           3           4           5           6           7           8           9          10
 IAtWgt=          12          12           1          12           1          12          12           1          12          12
 AtmWgt=  12.0000000  12.0000000   1.0078250  12.0000000   1.0078250  12.0000000  12.0000000   1.0078250  12.0000000  12.0000000
 NucSpn=           0           0           1           0           1           0           0           1           0           0
 AtZEff=  -3.6000000  -3.6000000  -1.0000000  -3.6000000  -1.0000000  -3.6000000  -3.6000000  -1.0000000  -3.6000000  -3.6000000
 NQMom=    0.0000000   0.0000000   0.0000000   0.0000000   0.0000000   0.0000000   0.0000000   0.0000000   0.0000000   0.0000000
 NMagM=    0.0000000   0.0000000   2.7928460   0.0000000   2.7928460   0.0000000   0.0000000   2.7928460   0.0000000   0.0000000
 AtZNuc=   6.0000000   6.0000000   1.0000000   6.0000000   1.0000000   6.0000000   6.0000000   1.0000000   6.0000000   6.0000000

  Atom        11          12          13          14          15          16          17          18          19          20
 IAtWgt=          12          12          12          12          12          14          32          16          16          12
 AtmWgt=  12.0000000  12.0000000  12.0000000  12.0000000  12.0000000  14.0030740  31.9720718  15.9949146  15.9949146  12.0000000
 NucSpn=           0           0           0           0           0           2           0           0           0           0
 AtZEff=  -3.6000000  -3.6000000  -3.6000000  -3.6000000  -3.6000000  -4.5500000 -13.6000000  -5.6000000  -5.6000000  -3.6000000
 NQMom=    0.0000000   0.0000000   0.0000000   0.0000000   0.0000000   2.0440000   0.0000000   0.0000000   0.0000000   0.0000000
 NMagM=    0.0000000   0.0000000   0.0000000   0.0000000   0.0000000   0.4037610   0.0000000   0.0000000   0.0000000   0.0000000
 AtZNuc=   6.0000000   6.0000000   6.0000000   6.0000000   6.0000000   7.0000000  16.0000000   8.0000000   8.0000000   6.0000000

  Atom        21          22          23          24          25          26          27          28          29          30
 IAtWgt=          35           1           1          19          19          19          19          16          12           1
 AtmWgt=  34.9688527   1.0078250   1.0078250  18.9984033  18.9984033  18.9984033  18.9984033  15.9949146  12.0000000   1.0078250
 NucSpn=           3           1           1           1           1           1           1           0           0           1
 AtZEff= -14.2400000  -1.0000000  -1.0000000  -6.7500000  -6.7500000  -6.7500000  -6.7500000  -5.6000000  -3.6000000  -1.0000000
 NQMom=   -8.1650000   0.0000000   0.0000000   0.0000000   0.0000000   0.0000000   0.0000000   0.0000000   0.0000000   0.0000000
 NMagM=    0.8218740   2.7928460   2.7928460   2.6288670   2.6288670   2.6288670   2.6288670   0.0000000   0.0000000   2.7928460
 AtZNuc=  17.0000000   1.0000000   1.0000000   9.0000000   9.0000000   9.0000000   9.0000000   8.0000000   6.0000000   1.0000000

  Atom        31          32          33          34          35          36          37          38          39          40
 IAtWgt=           1           1         106          31          12          12          12          12           1           1
 AtmWgt=   1.0078250   1.0078250 105.9032000  30.9737634  12.0000000  12.0000000  12.0000000  12.0000000   1.0078250   1.0078250
 NucSpn=           1           1           0           1           0           0           0           0           1           1
 AtZEff=  -1.0000000  -1.0000000-237.3600000 -12.9400000  -3.6000000  -3.6000000  -3.6000000  -3.6000000  -1.0000000  -1.0000000
 NQMom=    0.0000000   0.0000000   0.0000000   0.0000000   0.0000000   0.0000000   0.0000000   0.0000000   0.0000000   0.0000000
 NMagM=    2.7928460   2.7928460   0.0000000   1.1316000   0.0000000   0.0000000   0.0000000   0.0000000   2.7928460   2.7928460
 AtZNuc=   1.0000000   1.0000000  46.0000000  15.0000000   6.0000000   6.0000000   6.0000000   6.0000000   1.0000000   1.0000000

  Atom        41          42          43          44          45          46          47          48          49          50
 IAtWgt=          12          12          12          12          12          12          12          12          12           1
 AtmWgt=  12.0000000  12.0000000  12.0000000  12.0000000  12.0000000  12.0000000  12.0000000  12.0000000  12.0000000   1.0078250
 NucSpn=           0           0           0           0           0           0           0           0           0           1
 AtZEff=  -3.6000000  -3.6000000  -3.6000000  -3.6000000  -3.6000000  -3.6000000  -3.6000000  -3.6000000  -3.6000000  -1.0000000
 NQMom=    0.0000000   0.0000000   0.0000000   0.0000000   0.0000000   0.0000000   0.0000000   0.0000000   0.0000000   0.0000000
 NMagM=    0.0000000   0.0000000   0.0000000   0.0000000   0.0000000   0.0000000   0.0000000   0.0000000   0.0000000   2.7928460
 AtZNuc=   6.0000000   6.0000000   6.0000000   6.0000000   6.0000000   6.0000000   6.0000000   6.0000000   6.0000000   1.0000000

  Atom        51          52          53          54          55          56          57          58          59          60
 IAtWgt=           1           1           1           1           1           1           1           1           1           1
 AtmWgt=   1.0078250   1.0078250   1.0078250   1.0078250   1.0078250   1.0078250   1.0078250   1.0078250   1.0078250   1.0078250
 NucSpn=           1           1           1           1           1           1           1           1           1           1
 AtZEff=  -1.0000000  -1.0000000  -1.0000000  -1.0000000  -1.0000000  -1.0000000  -1.0000000  -1.0000000  -1.0000000  -1.0000000
 NQMom=    0.0000000   0.0000000   0.0000000   0.0000000   0.0000000   0.0000000   0.0000000   0.0000000   0.0000000   0.0000000
 NMagM=    2.7928460   2.7928460   2.7928460   2.7928460   2.7928460   2.7928460   2.7928460   2.7928460   2.7928460   2.7928460
 AtZNuc=   1.0000000   1.0000000   1.0000000   1.0000000   1.0000000   1.0000000   1.0000000   1.0000000   1.0000000   1.0000000

  Atom        61          62          63          64          65          66          67          68          69          70
 IAtWgt=           1           1           1           1           1           1           1           1           1           1
 AtmWgt=   1.0078250   1.0078250   1.0078250   1.0078250   1.0078250   1.0078250   1.0078250   1.0078250   1.0078250   1.0078250
 NucSpn=           1           1           1           1           1           1           1           1           1           1
 AtZEff=  -1.0000000  -1.0000000  -1.0000000  -1.0000000  -1.0000000  -1.0000000  -1.0000000  -1.0000000  -1.0000000  -1.0000000
 NQMom=    0.0000000   0.0000000   0.0000000   0.0000000   0.0000000   0.0000000   0.0000000   0.0000000   0.0000000   0.0000000
 NMagM=    2.7928460   2.7928460   2.7928460   2.7928460   2.7928460   2.7928460   2.7928460   2.7928460   2.7928460   2.7928460
 AtZNuc=   1.0000000   1.0000000   1.0000000   1.0000000   1.0000000   1.0000000   1.0000000   1.0000000   1.0000000   1.0000000

  Atom        71          72          73          74          75          76
 IAtWgt=           1           1           1           1           1           1
 AtmWgt=   1.0078250   1.0078250   1.0078250   1.0078250   1.0078250   1.0078250
 NucSpn=           1           1           1           1           1           1
 AtZEff=  -1.0000000  -1.0000000  -1.0000000  -1.0000000  -1.0000000  -1.0000000
 NQMom=    0.0000000   0.0000000   0.0000000   0.0000000   0.0000000   0.0000000
 NMagM=    2.7928460   2.7928460   2.7928460   2.7928460   2.7928460   2.7928460
 AtZNuc=   1.0000000   1.0000000   1.0000000   1.0000000   1.0000000   1.0000000
 Leave Link  101 at Sun Mar  3 12:35:02 2024, MaxMem=  4294967296 cpu:         4.1
 (Enter /cluster/apps/gaussian/g09/l103.exe)

 GradGradGradGradGradGradGradGradGradGradGradGradGradGradGradGradGradGrad
 Berny optimization.
 Initialization pass.
 Force constant matrix read from checkpoint file:
 "ts-neopentyl-v5-released.chk"
 NVar current= 433 chk= 433 common= 433.
                           ----------------------------
                           !    Initial Parameters    !
                           ! (Angstroms and Degrees)  !
 --------------------------                            --------------------------
 ! Name  Definition              Value          Derivative Info.                !
 --------------------------------------------------------------------------------
 ! R1    R(1,2)                  1.4059         D2E/DX2 =    0.3824             !
 ! R2    R(1,9)                  1.4131         D2E/DX2 =    0.2998             !
 ! R3    R(1,16)                 1.8877         D2E/DX2 =    0.0128             !
 ! R4    R(1,33)                 2.0364         D2E/DX2 =    0.0929             !
 ! R5    R(2,3)                  1.0913         D2E/DX2 =    0.3671             !
 ! R6    R(2,4)                  1.3881         D2E/DX2 =    0.4245             !
 ! R7    R(4,5)                  1.092          D2E/DX2 =    0.366              !
 ! R8    R(4,6)                  1.407          D2E/DX2 =    0.3882             !
 ! R9    R(6,7)                  1.3948         D2E/DX2 =    0.4125             !
 ! R10   R(6,28)                 1.3512         D2E/DX2 =    0.4551             !
 ! R11   R(7,8)                  1.0885         D2E/DX2 =    0.3742             !
 ! R12   R(7,9)                  1.4027         D2E/DX2 =    0.4017             !
 ! R13   R(9,10)                 1.4514         D2E/DX2 =    0.3017             !
 ! R14   R(10,11)                1.3908         D2E/DX2 =    0.4262             !
 ! R15   R(10,15)                1.4176         D2E/DX2 =    0.2805             !
 ! R16   R(11,12)                1.3912         D2E/DX2 =    0.4253             !
 ! R17   R(11,27)                1.3311         D2E/DX2 =    0.4555             !
 ! R18   R(12,13)                1.3958         D2E/DX2 =    0.4129             !
 ! R19   R(12,26)                1.3233         D2E/DX2 =    0.4801             !
 ! R20   R(13,14)                1.3947         D2E/DX2 =    0.4189             !
 ! R21   R(13,25)                1.3223         D2E/DX2 =    0.4814             !
 ! R22   R(14,15)                1.3937         D2E/DX2 =    0.4206             !
 ! R23   R(14,24)                1.3188         D2E/DX2 =    0.4851             !
 ! R24   R(15,16)                1.4042         D2E/DX2 =    0.345              !
 ! R25   R(16,17)                1.6674         D2E/DX2 =    0.2764             !
 ! R26   R(16,33)                2.0372         D2E/DX2 =    0.1067             !
 ! R27   R(17,18)                1.4572         D2E/DX2 =    0.6462             !
 ! R28   R(17,19)                1.4491         D2E/DX2 =    0.6793             !
 ! R29   R(17,20)                1.808          D2E/DX2 =    0.1949             !
 ! R30   R(20,21)                1.7591         D2E/DX2 =    0.2443             !
 ! R31   R(20,22)                1.0988         D2E/DX2 =    0.3511             !
 ! R32   R(20,23)                1.0978         D2E/DX2 =    0.3528             !
 ! R33   R(28,29)                1.3987         D2E/DX2 =    0.3833             !
 ! R34   R(29,30)                1.1049         D2E/DX2 =    0.3332             !
 ! R35   R(29,31)                1.1047         D2E/DX2 =    0.3335             !
 ! R36   R(29,32)                1.0974         D2E/DX2 =    0.3534             !
 ! R37   R(33,34)                2.2957         D2E/DX2 =    0.1123             !
 ! R38   R(34,35)                1.8652         D2E/DX2 =    0.1977             !
 ! R39   R(34,36)                1.8908         D2E/DX2 =    0.1822             !
 ! R40   R(34,37)                1.8917         D2E/DX2 =    0.1844             !
 ! R41   R(35,38)                1.5477         D2E/DX2 =    0.2797             !
 ! R42   R(35,39)                1.102          D2E/DX2 =    0.3395             !
 ! R43   R(35,40)                1.1012         D2E/DX2 =    0.3416             !
 ! R44   R(36,41)                1.5462         D2E/DX2 =    0.283              !
 ! R45   R(36,42)                1.5348         D2E/DX2 =    0.2855             !
 ! R46   R(36,43)                1.5305         D2E/DX2 =    0.2912             !
 ! R47   R(37,44)                1.5315         D2E/DX2 =    0.2902             !
 ! R48   R(37,45)                1.5317         D2E/DX2 =    0.2886             !
 ! R49   R(37,46)                1.5267         D2E/DX2 =    0.2913             !
 ! R50   R(38,47)                1.5285         D2E/DX2 =    0.2908             !
 ! R51   R(38,48)                1.533          D2E/DX2 =    0.2881             !
 ! R52   R(38,49)                1.5292         D2E/DX2 =    0.2911             !
 ! R53   R(41,50)                1.0973         D2E/DX2 =    0.3525             !
 ! R54   R(41,51)                1.1003         D2E/DX2 =    0.344              !
 ! R55   R(41,52)                1.1003         D2E/DX2 =    0.3444             !
 ! R56   R(42,53)                1.1025         D2E/DX2 =    0.3393             !
 ! R57   R(42,54)                1.0997         D2E/DX2 =    0.3479             !
 ! R58   R(42,55)                1.102          D2E/DX2 =    0.3411             !
 ! R59   R(43,56)                1.0983         D2E/DX2 =    0.3497             !
 ! R60   R(43,57)                1.1005         D2E/DX2 =    0.3464             !
 ! R61   R(43,58)                1.1023         D2E/DX2 =    0.3395             !
 ! R62   R(44,59)                1.0978         D2E/DX2 =    0.3554             !
 ! R63   R(44,60)                1.1023         D2E/DX2 =    0.3393             !
 ! R64   R(44,61)                1.0959         D2E/DX2 =    0.3566             !
 ! R65   R(45,62)                1.1021         D2E/DX2 =    0.3403             !
 ! R66   R(45,63)                1.1011         D2E/DX2 =    0.344              !
 ! R67   R(45,64)                1.0987         D2E/DX2 =    0.3492             !
 ! R68   R(46,65)                1.1028         D2E/DX2 =    0.3388             !
 ! R69   R(46,66)                1.1011         D2E/DX2 =    0.3431             !
 ! R70   R(46,67)                1.0991         D2E/DX2 =    0.3484             !
 ! R71   R(47,68)                1.101          D2E/DX2 =    0.3435             !
 ! R72   R(47,69)                1.1102         D2E/DX2 =    0.3153             !
 ! R73   R(47,70)                1.1004         D2E/DX2 =    0.3453             !
 ! R74   R(48,71)                1.1017         D2E/DX2 =    0.342              !
 ! R75   R(48,72)                1.1011         D2E/DX2 =    0.3436             !
 ! R76   R(48,73)                1.1017         D2E/DX2 =    0.3417             !
 ! R77   R(49,74)                1.1009         D2E/DX2 =    0.3438             !
 ! R78   R(49,75)                1.1007         D2E/DX2 =    0.3438             !
 ! R79   R(49,76)                1.1039         D2E/DX2 =    0.3331             !
 ! A1    A(2,1,9)              119.4016         D2E/DX2 =    0.063              !
 ! A2    A(2,1,33)             113.7167         D2E/DX2 =    0.0553             !
 ! A3    A(9,1,33)             122.6201         D2E/DX2 =    0.0321             !
 ! A4    A(1,2,3)              120.1805         D2E/DX2 =    0.0763             !
 ! A5    A(1,2,4)              119.1054         D2E/DX2 =    0.0726             !
 ! A6    A(3,2,4)              120.6503         D2E/DX2 =    0.0757             !
 ! A7    A(2,4,5)              120.7256         D2E/DX2 =    0.0761             !
 ! A8    A(2,4,6)              121.2233         D2E/DX2 =    0.0801             !
 ! A9    A(5,4,6)              118.0391         D2E/DX2 =    0.0762             !
 ! A10   A(4,6,7)              119.6178         D2E/DX2 =    0.0897             !
 ! A11   A(4,6,28)             116.0259         D2E/DX2 =    0.1572             !
 ! A12   A(7,6,28)             124.3201         D2E/DX2 =    0.171              !
 ! A13   A(6,7,8)              121.5223         D2E/DX2 =    0.0781             !
 ! A14   A(6,7,9)              119.5757         D2E/DX2 =    0.0777             !
 ! A15   A(8,7,9)              118.8186         D2E/DX2 =    0.0806             !
 ! A16   A(1,9,7)              120.1224         D2E/DX2 =    0.0719             !
 ! A17   A(1,9,10)             112.7987         D2E/DX2 =    0.0638             !
 ! A18   A(7,9,10)             126.4259         D2E/DX2 =    0.0863             !
 ! A19   A(9,10,11)            129.0841         D2E/DX2 =    0.0952             !
 ! A20   A(9,10,15)            111.5157         D2E/DX2 =    0.0669             !
 ! A21   A(11,10,15)           119.3292         D2E/DX2 =    0.0759             !
 ! A22   A(10,11,12)           120.4058         D2E/DX2 =    0.0846             !
 ! A23   A(10,11,27)           121.0066         D2E/DX2 =    0.134              !
 ! A24   A(12,11,27)           118.5802         D2E/DX2 =    0.1342             !
 ! A25   A(11,12,13)           119.8777         D2E/DX2 =    0.0839             !
 ! A26   A(11,12,26)           120.4718         D2E/DX2 =    0.1228             !
 ! A27   A(13,12,26)           119.639          D2E/DX2 =    0.1226             !
 ! A28   A(12,13,14)           120.8005         D2E/DX2 =    0.0842             !
 ! A29   A(12,13,25)           119.3318         D2E/DX2 =    0.1241             !
 ! A30   A(14,13,25)           119.8151         D2E/DX2 =    0.1246             !
 ! A31   A(13,14,15)           119.1874         D2E/DX2 =    0.0842             !
 ! A32   A(13,14,24)           118.4257         D2E/DX2 =    0.1324             !
 ! A33   A(15,14,24)           122.3426         D2E/DX2 =    0.1292             !
 ! A34   A(10,15,14)           120.3175         D2E/DX2 =    0.0775             !
 ! A35   A(10,15,16)           113.5895         D2E/DX2 =    0.0644             !
 ! A36   A(14,15,16)           125.8602         D2E/DX2 =    0.0988             !
 ! A37   A(15,16,17)           124.0158         D2E/DX2 =    0.1014             !
 ! A38   A(15,16,33)           111.0347         D2E/DX2 =    0.0288             !
 ! A39   A(17,16,33)           123.7165         D2E/DX2 =    0.0728             !
 ! A40   A(16,17,18)           105.4447         D2E/DX2 =    0.0754             !
 ! A41   A(16,17,19)           110.6374         D2E/DX2 =    0.074              !
 ! A42   A(16,17,20)           105.0238         D2E/DX2 =    0.2462             !
 ! A43   A(18,17,19)           122.0247         D2E/DX2 =    0.0419             !
 ! A44   A(18,17,20)           104.8044         D2E/DX2 =    0.0759             !
 ! A45   A(19,17,20)           107.5902         D2E/DX2 =    0.0868             !
 ! A46   A(17,20,21)           113.0334         D2E/DX2 =    0.1634             !
 ! A47   A(17,20,22)           104.6775         D2E/DX2 =    0.0965             !
 ! A48   A(17,20,23)           107.676          D2E/DX2 =    0.1008             !
 ! A49   A(21,20,22)           110.1634         D2E/DX2 =    0.0608             !
 ! A50   A(21,20,23)           110.2102         D2E/DX2 =    0.0627             !
 ! A51   A(22,20,23)           110.9497         D2E/DX2 =    0.0409             !
 ! A52   A(6,28,29)            118.3717         D2E/DX2 =    0.3272             !
 ! A53   A(28,29,30)           111.8105         D2E/DX2 =    0.1389             !
 ! A54   A(28,29,31)           111.9357         D2E/DX2 =    0.139              !
 ! A55   A(28,29,32)           106.776          D2E/DX2 =    0.1406             !
 ! A56   A(30,29,31)           108.5242         D2E/DX2 =    0.0714             !
 ! A57   A(30,29,32)           108.9147         D2E/DX2 =    0.069              !
 ! A58   A(31,29,32)           108.7937         D2E/DX2 =    0.0693             !
 ! A59   A(1,33,16)             55.2123         D2E/DX2 =    0.0015             !
 ! A60   A(1,33,34)            117.391          D2E/DX2 =    0.051              !
 ! A61   A(33,34,35)           110.4488         D2E/DX2 =    0.0319             !
 ! A62   A(33,34,36)           113.173          D2E/DX2 =    0.0237             !
 ! A63   A(33,34,37)           113.7537         D2E/DX2 =    0.0405             !
 ! A64   A(35,34,36)           102.5017         D2E/DX2 =    0.0427             !
 ! A65   A(35,34,37)           104.8195         D2E/DX2 =    0.0356             !
 ! A66   A(36,34,37)           111.214          D2E/DX2 =    0.054              !
 ! A67   A(34,35,38)           118.9428         D2E/DX2 =    0.221              !
 ! A68   A(34,35,39)           108.1688         D2E/DX2 =    0.0588             !
 ! A69   A(34,35,40)           106.5897         D2E/DX2 =    0.0538             !
 ! A70   A(38,35,39)           108.8961         D2E/DX2 =    0.06               !
 ! A71   A(38,35,40)           107.888          D2E/DX2 =    0.0604             !
 ! A72   A(39,35,40)           105.5669         D2E/DX2 =    0.0171             !
 ! A73   A(34,36,41)           114.2743         D2E/DX2 =    0.0343             !
 ! A74   A(34,36,42)           104.7594         D2E/DX2 =    0.0351             !
 ! A75   A(34,36,43)           109.3278         D2E/DX2 =    0.0347             !
 ! A76   A(41,36,42)           109.7804         D2E/DX2 =    0.0339             !
 ! A77   A(41,36,43)           110.6841         D2E/DX2 =    0.0354             !
 ! A78   A(42,36,43)           107.6706         D2E/DX2 =    0.0318             !
 ! A79   A(34,37,44)           109.7684         D2E/DX2 =    0.0351             !
 ! A80   A(34,37,45)           106.0591         D2E/DX2 =    0.0351             !
 ! A81   A(34,37,46)           113.5837         D2E/DX2 =    0.0354             !
 ! A82   A(44,37,45)           107.2451         D2E/DX2 =    0.0341             !
 ! A83   A(44,37,46)           109.9616         D2E/DX2 =    0.0333             !
 ! A84   A(45,37,46)           109.9725         D2E/DX2 =    0.0306             !
 ! A85   A(35,38,47)           111.1925         D2E/DX2 =    0.0388             !
 ! A86   A(35,38,48)           106.7796         D2E/DX2 =    0.0338             !
 ! A87   A(35,38,49)           112.1632         D2E/DX2 =    0.0379             !
 ! A88   A(47,38,48)           108.5556         D2E/DX2 =    0.0334             !
 ! A89   A(47,38,49)           109.2742         D2E/DX2 =    0.0335             !
 ! A90   A(48,38,49)           108.7595         D2E/DX2 =    0.033              !
 ! A91   A(36,41,50)           114.0573         D2E/DX2 =    0.1011             !
 ! A92   A(36,41,51)           111.0349         D2E/DX2 =    0.1021             !
 ! A93   A(36,41,52)           110.8685         D2E/DX2 =    0.1006             !
 ! A94   A(50,41,51)           106.7994         D2E/DX2 =    0.0523             !
 ! A95   A(50,41,52)           106.7568         D2E/DX2 =    0.0518             !
 ! A96   A(51,41,52)           106.9524         D2E/DX2 =    0.0492             !
 ! A97   A(36,42,53)           109.2037         D2E/DX2 =    0.0999             !
 ! A98   A(36,42,54)           112.2594         D2E/DX2 =    0.1026             !
 ! A99   A(36,42,55)           111.5511         D2E/DX2 =    0.1033             !
 ! A100  A(53,42,54)           107.4393         D2E/DX2 =    0.0491             !
 ! A101  A(53,42,55)           108.3354         D2E/DX2 =    0.0482             !
 ! A102  A(54,42,55)           107.8948         D2E/DX2 =    0.052              !
 ! A103  A(36,43,56)           112.1679         D2E/DX2 =    0.1                !
 ! A104  A(36,43,57)           111.6216         D2E/DX2 =    0.1018             !
 ! A105  A(36,43,58)           109.1854         D2E/DX2 =    0.1024             !
 ! A106  A(56,43,57)           108.3871         D2E/DX2 =    0.0516             !
 ! A107  A(56,43,58)           107.2866         D2E/DX2 =    0.0489             !
 ! A108  A(57,43,58)           108.0172         D2E/DX2 =    0.0486             !
 ! A109  A(37,44,59)           111.4845         D2E/DX2 =    0.1008             !
 ! A110  A(37,44,60)           108.7232         D2E/DX2 =    0.1018             !
 ! A111  A(37,44,61)           113.0966         D2E/DX2 =    0.1005             !
 ! A112  A(59,44,60)           107.7743         D2E/DX2 =    0.0473             !
 ! A113  A(59,44,61)           108.1733         D2E/DX2 =    0.0521             !
 ! A114  A(60,44,61)           107.3792         D2E/DX2 =    0.0495             !
 ! A115  A(37,45,62)           108.9458         D2E/DX2 =    0.1006             !
 ! A116  A(37,45,63)           111.1593         D2E/DX2 =    0.1021             !
 ! A117  A(37,45,64)           112.8055         D2E/DX2 =    0.1018             !
 ! A118  A(62,45,63)           107.9086         D2E/DX2 =    0.0475             !
 ! A119  A(62,45,64)           107.4471         D2E/DX2 =    0.0493             !
 ! A120  A(63,45,64)           108.3957         D2E/DX2 =    0.0518             !
 ! A121  A(37,46,65)           109.2402         D2E/DX2 =    0.0998             !
 ! A122  A(37,46,66)           112.5591         D2E/DX2 =    0.0994             !
 ! A123  A(37,46,67)           112.0742         D2E/DX2 =    0.0994             !
 ! A124  A(65,46,66)           107.1179         D2E/DX2 =    0.0488             !
 ! A125  A(65,46,67)           107.363          D2E/DX2 =    0.0486             !
 ! A126  A(66,46,67)           108.2393         D2E/DX2 =    0.0517             !
 ! A127  A(38,47,68)           111.8391         D2E/DX2 =    0.0954             !
 ! A128  A(38,47,69)           112.3008         D2E/DX2 =    0.0982             !
 ! A129  A(38,47,70)           110.7181         D2E/DX2 =    0.0972             !
 ! A130  A(68,47,69)           107.2374         D2E/DX2 =    0.0498             !
 ! A131  A(68,47,70)           108.0181         D2E/DX2 =    0.0493             !
 ! A132  A(69,47,70)           106.4611         D2E/DX2 =    0.0487             !
 ! A133  A(38,48,71)           111.1455         D2E/DX2 =    0.1004             !
 ! A134  A(38,48,72)           110.7676         D2E/DX2 =    0.0999             !
 ! A135  A(38,48,73)           111.3093         D2E/DX2 =    0.1006             !
 ! A136  A(71,48,72)           107.7634         D2E/DX2 =    0.0493             !
 ! A137  A(71,48,73)           107.8987         D2E/DX2 =    0.0499             !
 ! A138  A(72,48,73)           107.8024         D2E/DX2 =    0.0495             !
 ! A139  A(38,49,74)           110.255          D2E/DX2 =    0.1007             !
 ! A140  A(38,49,75)           111.5988         D2E/DX2 =    0.0985             !
 ! A141  A(38,49,76)           111.4112         D2E/DX2 =    0.0997             !
 ! A142  A(74,49,75)           107.8077         D2E/DX2 =    0.0492             !
 ! A143  A(74,49,76)           107.469          D2E/DX2 =    0.0488             !
 ! A144  A(75,49,76)           108.133          D2E/DX2 =    0.05               !
 ! A145  L(16,33,34,1,-1)      172.6033         D2E/DX2 =    0.045              !
 ! A146  L(16,33,34,1,-2)      169.0047         D2E/DX2 =    0.0204             !
 ! D1    D(9,1,2,3)           -172.8336         D2E/DX2 =    0.0073             !
 ! D2    D(9,1,2,4)             10.0533         D2E/DX2 =    0.0076             !
 ! D3    D(33,1,2,3)            29.7382         D2E/DX2 =    0.0079             !
 ! D4    D(33,1,2,4)          -147.3749         D2E/DX2 =    0.0072             !
 ! D5    D(2,1,9,7)            -11.1161         D2E/DX2 =    0.0064             !
 ! D6    D(2,1,9,10)           160.2044         D2E/DX2 =    0.0088             !
 ! D7    D(33,1,9,7)           144.2236         D2E/DX2 =    0.005              !
 ! D8    D(33,1,9,10)          -44.4559         D2E/DX2 =    0.005              !
 ! D9    D(2,1,33,16)         -121.5365         D2E/DX2 =    0.0267             !
 ! D10   D(2,1,33,34)           69.4587         D2E/DX2 =    0.0136             !
 ! D11   D(9,1,33,16)           81.856          D2E/DX2 =    0.0266             !
 ! D12   D(9,1,33,34)          -87.1487         D2E/DX2 =    0.0115             !
 ! D13   D(1,2,4,5)            176.0982         D2E/DX2 =    0.0085             !
 ! D14   D(1,2,4,6)             -2.6195         D2E/DX2 =    0.0085             !
 ! D15   D(3,2,4,5)             -1.001          D2E/DX2 =    0.0089             !
 ! D16   D(3,2,4,6)           -179.7187         D2E/DX2 =    0.0084             !
 ! D17   D(2,4,6,7)             -3.9322         D2E/DX2 =    0.0079             !
 ! D18   D(2,4,6,28)           178.1625         D2E/DX2 =    0.0083             !
 ! D19   D(5,4,6,7)            177.3166         D2E/DX2 =    0.0072             !
 ! D20   D(5,4,6,28)            -0.5886         D2E/DX2 =    0.0092             !
 ! D21   D(4,6,7,8)           -173.7268         D2E/DX2 =    0.0082             !
 ! D22   D(4,6,7,9)              2.9122         D2E/DX2 =    0.0077             !
 ! D23   D(28,6,7,8)             3.994          D2E/DX2 =    0.0095             !
 ! D24   D(28,6,7,9)          -179.367          D2E/DX2 =    0.0097             !
 ! D25   D(4,6,28,29)          178.5975         D2E/DX2 =    0.0095             !
 ! D26   D(7,6,28,29)            0.8025         D2E/DX2 =    0.0087             !
 ! D27   D(6,7,9,1)              4.5706         D2E/DX2 =    0.0076             !
 ! D28   D(6,7,9,10)          -165.4731         D2E/DX2 =    0.0097             !
 ! D29   D(8,7,9,1)           -178.6993         D2E/DX2 =    0.0072             !
 ! D30   D(8,7,9,10)            11.2569         D2E/DX2 =    0.0085             !
 ! D31   D(1,9,10,11)          165.8384         D2E/DX2 =    0.0076             !
 ! D32   D(1,9,10,15)          -17.2953         D2E/DX2 =    0.0093             !
 ! D33   D(7,9,10,11)          -23.4975         D2E/DX2 =    0.0064             !
 ! D34   D(7,9,10,15)          153.3689         D2E/DX2 =    0.0081             !
 ! D35   D(9,10,11,12)         177.5082         D2E/DX2 =    0.007              !
 ! D36   D(9,10,11,27)          -3.5018         D2E/DX2 =    0.0092             !
 ! D37   D(15,10,11,12)          0.8524         D2E/DX2 =    0.0061             !
 ! D38   D(15,10,11,27)        179.8424         D2E/DX2 =    0.0093             !
 ! D39   D(9,10,15,14)         179.9164         D2E/DX2 =    0.0058             !
 ! D40   D(9,10,15,16)           5.1423         D2E/DX2 =    0.008              !
 ! D41   D(11,10,15,14)         -2.8734         D2E/DX2 =    0.0055             !
 ! D42   D(11,10,15,16)       -177.6475         D2E/DX2 =    0.0061             !
 ! D43   D(10,11,12,13)          0.4884         D2E/DX2 =    0.0061             !
 ! D44   D(10,11,12,26)        179.2498         D2E/DX2 =    0.0093             !
 ! D45   D(27,11,12,13)       -178.5258         D2E/DX2 =    0.009              !
 ! D46   D(27,11,12,26)          0.2356         D2E/DX2 =    0.0114             !
 ! D47   D(11,12,13,14)          0.1605         D2E/DX2 =    0.0055             !
 ! D48   D(11,12,13,25)        177.5191         D2E/DX2 =    0.0091             !
 ! D49   D(26,12,13,14)       -178.6113         D2E/DX2 =    0.009              !
 ! D50   D(26,12,13,25)         -1.2527         D2E/DX2 =    0.0112             !
 ! D51   D(12,13,14,15)         -2.1563         D2E/DX2 =    0.0061             !
 ! D52   D(12,13,14,24)        175.4801         D2E/DX2 =    0.0092             !
 ! D53   D(25,13,14,15)       -179.5022         D2E/DX2 =    0.0092             !
 ! D54   D(25,13,14,24)         -1.8658         D2E/DX2 =    0.0117             !
 ! D55   D(13,14,15,10)          3.5027         D2E/DX2 =    0.0061             !
 ! D56   D(13,14,15,16)        177.5911         D2E/DX2 =    0.0074             !
 ! D57   D(24,14,15,10)       -174.0369         D2E/DX2 =    0.0103             !
 ! D58   D(24,14,15,16)          0.0515         D2E/DX2 =    0.0098             !
 ! D59   D(10,15,16,17)       -122.5226         D2E/DX2 =    0.0087             !
 ! D60   D(10,15,16,33)         69.7809         D2E/DX2 =    0.0066             !
 ! D61   D(14,15,16,17)         63.0448         D2E/DX2 =    0.0087             !
 ! D62   D(14,15,16,33)       -104.6517         D2E/DX2 =    0.0068             !
 ! D63   D(15,16,17,18)       -178.978          D2E/DX2 =    0.0343             !
 ! D64   D(15,16,17,19)        -45.1948         D2E/DX2 =    0.0296             !
 ! D65   D(15,16,17,20)         70.6185         D2E/DX2 =    0.0218             !
 ! D66   D(33,16,17,18)        -12.8121         D2E/DX2 =    0.0308             !
 ! D67   D(33,16,17,19)        120.9711         D2E/DX2 =    0.0345             !
 ! D68   D(33,16,17,20)       -123.2155         D2E/DX2 =    0.0246             !
 ! D69   D(15,16,33,1)         -91.0843         D2E/DX2 =    0.0267             !
 ! D70   D(17,16,33,1)         101.1755         D2E/DX2 =    0.0253             !
 ! D71   D(15,16,34,35)         69.6445         D2E/DX2 =    0.0129             !
 ! D72   D(15,16,34,36)       -172.2171         D2E/DX2 =    0.0165             !
 ! D73   D(15,16,34,37)        -45.3963         D2E/DX2 =    0.0128             !
 ! D74   D(17,16,34,35)       -101.3223         D2E/DX2 =    0.0146             !
 ! D75   D(17,16,34,36)         16.8162         D2E/DX2 =    0.0127             !
 ! D76   D(17,16,34,37)        143.637          D2E/DX2 =    0.0162             !
 ! D77   D(16,17,20,21)        -65.1482         D2E/DX2 =    0.026              !
 ! D78   D(16,17,20,22)        174.9473         D2E/DX2 =    0.0229             !
 ! D79   D(16,17,20,23)         56.8225         D2E/DX2 =    0.0226             !
 ! D80   D(18,17,20,21)       -176.0112         D2E/DX2 =    0.0276             !
 ! D81   D(18,17,20,22)         64.0842         D2E/DX2 =    0.026              !
 ! D82   D(18,17,20,23)        -54.0406         D2E/DX2 =    0.0266             !
 ! D83   D(19,17,20,21)         52.7509         D2E/DX2 =    0.0258             !
 ! D84   D(19,17,20,22)        -67.1536         D2E/DX2 =    0.0233             !
 ! D85   D(19,17,20,23)        174.7215         D2E/DX2 =    0.0238             !
 ! D86   D(6,28,29,30)          59.4759         D2E/DX2 =    0.0291             !
 ! D87   D(6,28,29,31)         -62.5344         D2E/DX2 =    0.0293             !
 ! D88   D(6,28,29,32)         178.5088         D2E/DX2 =    0.0258             !
 ! D89   D(1,33,34,35)         155.8937         D2E/DX2 =    0.0154             !
 ! D90   D(1,33,34,36)         -89.8446         D2E/DX2 =    0.0154             !
 ! D91   D(1,33,34,37)          38.3558         D2E/DX2 =    0.0175             !
 ! D92   D(33,34,35,38)         -4.1719         D2E/DX2 =    0.0167             !
 ! D93   D(33,34,35,39)       -128.9904         D2E/DX2 =    0.0125             !
 ! D94   D(33,34,35,40)        117.9004         D2E/DX2 =    0.0132             !
 ! D95   D(36,34,35,38)       -125.0256         D2E/DX2 =    0.0244             !
 ! D96   D(36,34,35,39)        110.1559         D2E/DX2 =    0.018              !
 ! D97   D(36,34,35,40)         -2.9532         D2E/DX2 =    0.0179             !
 ! D98   D(37,34,35,38)        118.7393         D2E/DX2 =    0.0289             !
 ! D99   D(37,34,35,39)         -6.0792         D2E/DX2 =    0.0199             !
 ! D100  D(37,34,35,40)       -119.1884         D2E/DX2 =    0.0222             !
 ! D101  D(33,34,36,41)       -163.4265         D2E/DX2 =    0.0138             !
 ! D102  D(33,34,36,42)        -43.2465         D2E/DX2 =    0.0141             !
 ! D103  D(33,34,36,43)         71.9075         D2E/DX2 =    0.0133             !
 ! D104  D(35,34,36,41)        -44.4685         D2E/DX2 =    0.0184             !
 ! D105  D(35,34,36,42)         75.7115         D2E/DX2 =    0.0183             !
 ! D106  D(35,34,36,43)       -169.1345         D2E/DX2 =    0.0164             !
 ! D107  D(37,34,36,41)         67.068          D2E/DX2 =    0.0199             !
 ! D108  D(37,34,36,42)       -172.752          D2E/DX2 =    0.0181             !
 ! D109  D(37,34,36,43)        -57.598          D2E/DX2 =    0.0178             !
 ! D110  D(33,34,37,44)        -54.5939         D2E/DX2 =    0.0141             !
 ! D111  D(33,34,37,45)         60.9546         D2E/DX2 =    0.0125             !
 ! D112  D(33,34,37,46)       -178.1481         D2E/DX2 =    0.011              !
 ! D113  D(35,34,37,44)       -175.3428         D2E/DX2 =    0.0183             !
 ! D114  D(35,34,37,45)        -59.7942         D2E/DX2 =    0.0185             !
 ! D115  D(35,34,37,46)         61.103          D2E/DX2 =    0.0169             !
 ! D116  D(36,34,37,44)         74.6042         D2E/DX2 =    0.0197             !
 ! D117  D(36,34,37,45)       -169.8473         D2E/DX2 =    0.0162             !
 ! D118  D(36,34,37,46)        -48.95           D2E/DX2 =    0.015              !
 ! D119  D(34,35,38,47)         59.5494         D2E/DX2 =    0.018              !
 ! D120  D(34,35,38,48)        177.8043         D2E/DX2 =    0.0145             !
 ! D121  D(34,35,38,49)        -63.149          D2E/DX2 =    0.0161             !
 ! D122  D(39,35,38,47)       -175.985          D2E/DX2 =    0.0168             !
 ! D123  D(39,35,38,48)        -57.7301         D2E/DX2 =    0.0143             !
 ! D124  D(39,35,38,49)         61.3167         D2E/DX2 =    0.0137             !
 ! D125  D(40,35,38,47)        -61.8719         D2E/DX2 =    0.0143             !
 ! D126  D(40,35,38,48)         56.383          D2E/DX2 =    0.0144             !
 ! D127  D(40,35,38,49)        175.4298         D2E/DX2 =    0.0154             !
 ! D128  D(34,36,41,50)         -3.9731         D2E/DX2 =    0.0132             !
 ! D129  D(34,36,41,51)        116.7435         D2E/DX2 =    0.0141             !
 ! D130  D(34,36,41,52)       -124.5101         D2E/DX2 =    0.0138             !
 ! D131  D(42,36,41,50)       -121.3074         D2E/DX2 =    0.0142             !
 ! D132  D(42,36,41,51)         -0.5908         D2E/DX2 =    0.0139             !
 ! D133  D(42,36,41,52)        118.1556         D2E/DX2 =    0.014              !
 ! D134  D(43,36,41,50)        119.9691         D2E/DX2 =    0.0138             !
 ! D135  D(43,36,41,51)       -119.3143         D2E/DX2 =    0.0136             !
 ! D136  D(43,36,41,52)         -0.5679         D2E/DX2 =    0.0133             !
 ! D137  D(34,36,42,53)        178.2557         D2E/DX2 =    0.0156             !
 ! D138  D(34,36,42,54)        -62.7009         D2E/DX2 =    0.0153             !
 ! D139  D(34,36,42,55)         58.5387         D2E/DX2 =    0.0158             !
 ! D140  D(41,36,42,53)        -58.6145         D2E/DX2 =    0.0147             !
 ! D141  D(41,36,42,54)         60.429          D2E/DX2 =    0.0147             !
 ! D142  D(41,36,42,55)       -178.3314         D2E/DX2 =    0.0152             !
 ! D143  D(43,36,42,53)         61.951          D2E/DX2 =    0.0155             !
 ! D144  D(43,36,42,54)       -179.0056         D2E/DX2 =    0.0157             !
 ! D145  D(43,36,42,55)        -57.7659         D2E/DX2 =    0.0156             !
 ! D146  D(34,36,43,56)         75.4154         D2E/DX2 =    0.0155             !
 ! D147  D(34,36,43,57)        -46.4474         D2E/DX2 =    0.0152             !
 ! D148  D(34,36,43,58)       -165.8006         D2E/DX2 =    0.015              !
 ! D149  D(41,36,43,56)        -51.3184         D2E/DX2 =    0.0142             !
 ! D150  D(41,36,43,57)       -173.1813         D2E/DX2 =    0.0144             !
 ! D151  D(41,36,43,58)         67.4655         D2E/DX2 =    0.0139             !
 ! D152  D(42,36,43,56)       -171.3134         D2E/DX2 =    0.016              !
 ! D153  D(42,36,43,57)         66.8237         D2E/DX2 =    0.0157             !
 ! D154  D(42,36,43,58)        -52.5295         D2E/DX2 =    0.0156             !
 ! D155  D(34,37,44,59)         52.5033         D2E/DX2 =    0.0148             !
 ! D156  D(34,37,44,60)        171.1755         D2E/DX2 =    0.0151             !
 ! D157  D(34,37,44,61)        -69.654          D2E/DX2 =    0.0146             !
 ! D158  D(45,37,44,59)        -62.2904         D2E/DX2 =    0.015              !
 ! D159  D(45,37,44,60)         56.3818         D2E/DX2 =    0.015              !
 ! D160  D(45,37,44,61)        175.5523         D2E/DX2 =    0.015              !
 ! D161  D(46,37,44,59)        178.1549         D2E/DX2 =    0.014              !
 ! D162  D(46,37,44,60)        -63.1729         D2E/DX2 =    0.0136             !
 ! D163  D(46,37,44,61)         55.9977         D2E/DX2 =    0.0135             !
 ! D164  D(34,37,45,62)       -174.5862         D2E/DX2 =    0.0156             !
 ! D165  D(34,37,45,63)        -55.804          D2E/DX2 =    0.0158             !
 ! D166  D(34,37,45,64)         66.1904         D2E/DX2 =    0.0155             !
 ! D167  D(44,37,45,62)        -57.336          D2E/DX2 =    0.0152             !
 ! D168  D(44,37,45,63)         61.4462         D2E/DX2 =    0.0153             !
 ! D169  D(44,37,45,64)       -176.5594         D2E/DX2 =    0.0154             !
 ! D170  D(46,37,45,62)         62.2117         D2E/DX2 =    0.0144             !
 ! D171  D(46,37,45,63)       -179.0062         D2E/DX2 =    0.0148             !
 ! D172  D(46,37,45,64)        -57.0117         D2E/DX2 =    0.0144             !
 ! D173  D(34,37,46,65)       -175.4042         D2E/DX2 =    0.0147             !
 ! D174  D(34,37,46,66)        -56.5505         D2E/DX2 =    0.0145             !
 ! D175  D(34,37,46,67)         65.739          D2E/DX2 =    0.0148             !
 ! D176  D(44,37,46,65)         61.147          D2E/DX2 =    0.0147             !
 ! D177  D(44,37,46,66)       -179.9993         D2E/DX2 =    0.0149             !
 ! D178  D(44,37,46,67)        -57.7098         D2E/DX2 =    0.0149             !
 ! D179  D(45,37,46,65)        -56.7313         D2E/DX2 =    0.0151             !
 ! D180  D(45,37,46,66)         62.1225         D2E/DX2 =    0.0149             !
 ! D181  D(45,37,46,67)       -175.5881         D2E/DX2 =    0.0154             !
 ! D182  D(35,38,47,68)         58.5414         D2E/DX2 =    0.015              !
 ! D183  D(35,38,47,69)        -62.0839         D2E/DX2 =    0.0146             !
 ! D184  D(35,38,47,70)        179.0623         D2E/DX2 =    0.0151             !
 ! D185  D(48,38,47,68)        -58.6367         D2E/DX2 =    0.0146             !
 ! D186  D(48,38,47,69)       -179.262          D2E/DX2 =    0.0145             !
 ! D187  D(48,38,47,70)         61.8841         D2E/DX2 =    0.0144             !
 ! D188  D(49,38,47,68)       -177.1105         D2E/DX2 =    0.015              !
 ! D189  D(49,38,47,69)         62.2642         D2E/DX2 =    0.0145             !
 ! D190  D(49,38,47,70)        -56.5896         D2E/DX2 =    0.0147             !
 ! D191  D(35,38,48,71)         60.4828         D2E/DX2 =    0.016              !
 ! D192  D(35,38,48,72)       -179.7474         D2E/DX2 =    0.0163             !
 ! D193  D(35,38,48,73)        -59.8204         D2E/DX2 =    0.016              !
 ! D194  D(47,38,48,71)       -179.5503         D2E/DX2 =    0.0154             !
 ! D195  D(47,38,48,72)        -59.7805         D2E/DX2 =    0.0152             !
 ! D196  D(47,38,48,73)         60.1465         D2E/DX2 =    0.0152             !
 ! D197  D(49,38,48,71)        -60.7516         D2E/DX2 =    0.0151             !
 ! D198  D(49,38,48,72)         59.0182         D2E/DX2 =    0.015              !
 ! D199  D(49,38,48,73)        178.9452         D2E/DX2 =    0.0153             !
 ! D200  D(35,38,49,74)       -179.4258         D2E/DX2 =    0.015              !
 ! D201  D(35,38,49,75)        -59.6442         D2E/DX2 =    0.015              !
 ! D202  D(35,38,49,76)         61.3388         D2E/DX2 =    0.0155             !
 ! D203  D(47,38,49,74)         56.7968         D2E/DX2 =    0.0151             !
 ! D204  D(47,38,49,75)        176.5784         D2E/DX2 =    0.0154             !
 ! D205  D(47,38,49,76)        -62.4386         D2E/DX2 =    0.0155             !
 ! D206  D(48,38,49,74)        -61.5497         D2E/DX2 =    0.0142             !
 ! D207  D(48,38,49,75)         58.2319         D2E/DX2 =    0.0143             !
 ! D208  D(48,38,49,76)        179.215          D2E/DX2 =    0.0149             !
 --------------------------------------------------------------------------------
 Trust Radius=3.00D-01 FncErr=1.00D-07 GrdErr=1.00D-06
 Number of steps in this run=    443 maximum allowed number of steps=    456.
 Search for a saddle point of order  1.
 GradGradGradGradGradGradGradGradGradGradGradGradGradGradGradGradGradGrad

 Leave Link  103 at Sun Mar  3 12:35:02 2024, MaxMem=  4294967296 cpu:         0.1
 (Enter /cluster/apps/gaussian/g09/l202.exe)
 Stoichiometry    C27H37ClF4NO3PPdS
 Framework group  C1[X(C27H37ClF4NO3PPdS)]
 Deg. of freedom   222
 Full point group                 C1      NOp   1
 RotChk:  IX=0 Diff= 4.59D-15
 Largest Abelian subgroup         C1      NOp   1
 Largest concise Abelian subgroup C1      NOp   1
                         Standard orientation:                         
 ---------------------------------------------------------------------
 Center     Atomic      Atomic             Coordinates (Angstroms)
 Number     Number       Type             X           Y           Z
 ---------------------------------------------------------------------
      1          6           0       -0.621491    1.143864   -0.554760
      2          6           0       -0.371120    2.269452   -1.359153
      3          1           0        0.194992    2.166156   -2.286384
      4          6           0       -0.800429    3.516863   -0.927385
      5          1           0       -0.565047    4.416776   -1.499504
      6          6           0       -1.525967    3.664648    0.269025
      7          6           0       -1.893166    2.532885    0.996778
      8          1           0       -2.538928    2.602724    1.870292
      9          6           0       -1.481990    1.265074    0.559505
     10          6           0       -2.003704   -0.012656    1.008843
     11          6           0       -2.645670   -0.327013    2.201843
     12          6           0       -3.122407   -1.614465    2.426895
     13          6           0       -2.947259   -2.600629    1.454717
     14          6           0       -2.294892   -2.313716    0.255827
     15          6           0       -1.855580   -1.013082    0.015455
     16          7           0       -1.145295   -0.580642   -1.116049
     17         16           0       -1.750396   -0.621838   -2.669224
     18          8           0       -0.680978   -0.109316   -3.516057
     19          8           0       -2.396895   -1.891852   -2.931971
     20          6           0       -3.025679    0.659112   -2.709494
     21         17           0       -4.388923    0.306504   -1.655143
     22          1           0       -3.355428    0.690842   -3.757150
     23          1           0       -2.555388    1.606967   -2.417155
     24          9           0       -2.074868   -3.300573   -0.590958
     25          9           0       -3.360502   -3.832575    1.699890
     26          9           0       -3.720270   -1.918825    3.567488
     27          9           0       -2.800285    0.585540    3.158441
     28          8           0       -1.857959    4.929628    0.608676
     29          6           0       -2.605489    5.130594    1.773664
     30          1           0       -2.082942    4.746245    2.668151
     31          1           0       -3.598954    4.651033    1.714412
     32          1           0       -2.741803    6.214348    1.879538
     33         46           0        0.822155   -0.287213   -0.676334
     34         15           0        2.870619    0.198601    0.239053
     35          6           0        3.773133   -1.371154    0.686777
     36          6           0        4.056820    1.018010   -0.984327
     37          6           0        2.770423    1.176822    1.855046
     38          6           0        3.052204   -2.728225    0.502345
     39          1           0        4.112338   -1.286365    1.731823
     40          1           0        4.691037   -1.390408    0.078789
     41          6           0        5.539499    0.991967   -0.546573
     42          6           0        3.885685    0.223853   -2.286512
     43          6           0        3.597186    2.453230   -1.251628
     44          6           0        1.942086    2.447102    1.641088
     45          6           0        1.998912    0.291965    2.838833
     46          6           0        4.135295    1.536468    2.436988
     47          6           0        2.645714   -2.944365   -0.955128
     48          6           0        4.054774   -3.819083    0.896104
     49          6           0        1.816361   -2.850871    1.394563
     50          1           0        5.704301    0.562428    0.449613
     51          1           0        6.148853    0.405641   -1.250466
     52          1           0        5.960404    2.008350   -0.527367
     53          1           0        4.527931    0.664255   -3.066924
     54          1           0        4.179676   -0.829751   -2.173563
     55          1           0        2.842662    0.248191   -2.641400
     56          1           0        3.829429    3.125441   -0.414649
     57          1           0        2.515289    2.502832   -1.446788
     58          1           0        4.122004    2.842257   -2.139546
     59          1           0        0.966352    2.219976    1.192290
     60          1           0        1.760294    2.920058    2.620057
     61          1           0        2.445376    3.187060    1.008467
     62          1           0        1.827452    0.856801    3.769491
     63          1           0        1.017128    0.006068    2.430533
     64          1           0        2.543782   -0.624167    3.105152
     65          1           0        3.995527    2.029582    3.413408
     66          1           0        4.767896    0.651658    2.608352
     67          1           0        4.687901    2.234919    1.792913
     68          1           0        3.514254   -2.915615   -1.631146
     69          1           0        1.926839   -2.176544   -1.310290
     70          1           0        2.148990   -3.918197   -1.080406
     71          1           0        4.371271   -3.707921    1.945444
     72          1           0        3.607657   -4.819081    0.784216
     73          1           0        4.956706   -3.780790    0.264526
     74          1           0        1.334720   -3.829595    1.246096
     75          1           0        2.075738   -2.761578    2.460560
     76          1           0        1.068844   -2.074169    1.156625
 ---------------------------------------------------------------------
 Rotational constants (GHZ):      0.0982469      0.0702086      0.0623550
 Leave Link  202 at Sun Mar  3 12:35:02 2024, MaxMem=  4294967296 cpu:         1.7
 (Enter /cluster/apps/gaussian/g09/l301.exe)
 General basis read from cards:  (5D, 7F)
 Centers:       1      2      4      6      7      9     10     11     12     13
 Centers:      14     15     20     29     35     36     37     38     41     42
 Centers:      43     44     45     46     47     48     49     17     24     25
 Centers:      26     27     34     21      3      5      8     22     23     30
 Centers:      31     32     39     40     50     51     52     53     54     55
 Centers:      56     57     58     59     60     61     62     63     64     65
 Centers:      66     67     68     69     70     71     72     73     74     75
 Centers:      76     16     18     19     28
 def2svp
 ****
 Centers:      33
 def2tzvp
 ****
 ======================================================================================================
                                       Pseudopotential Parameters
 ======================================================================================================
  Center     Atomic      Valence      Angular      Power
  Number     Number     Electrons     Momentum     of R      Exponent        Coefficient   SO-Coeffient
 ======================================================================================================
    1          6
                                   No pseudopotential on this center.
    2          6
                                   No pseudopotential on this center.
    3          1
                                   No pseudopotential on this center.
    4          6
                                   No pseudopotential on this center.
    5          1
                                   No pseudopotential on this center.
    6          6
                                   No pseudopotential on this center.
    7          6
                                   No pseudopotential on this center.
    8          1
                                   No pseudopotential on this center.
    9          6
                                   No pseudopotential on this center.
   10          6
                                   No pseudopotential on this center.
   11          6
                                   No pseudopotential on this center.
   12          6
                                   No pseudopotential on this center.
   13          6
                                   No pseudopotential on this center.
   14          6
                                   No pseudopotential on this center.
   15          6
                                   No pseudopotential on this center.
   16          7
                                   No pseudopotential on this center.
   17         16
                                   No pseudopotential on this center.
   18          8
                                   No pseudopotential on this center.
   19          8
                                   No pseudopotential on this center.
   20          6
                                   No pseudopotential on this center.
   21         17
                                   No pseudopotential on this center.
   22          1
                                   No pseudopotential on this center.
   23          1
                                   No pseudopotential on this center.
   24          9
                                   No pseudopotential on this center.
   25          9
                                   No pseudopotential on this center.
   26          9
                                   No pseudopotential on this center.
   27          9
                                   No pseudopotential on this center.
   28          8
                                   No pseudopotential on this center.
   29          6
                                   No pseudopotential on this center.
   30          1
                                   No pseudopotential on this center.
   31          1
                                   No pseudopotential on this center.
   32          1
                                   No pseudopotential on this center.
   33         46           18
                                      G and up 
                                                     2        1.0000000        0.00000000    0.00000000
                                      S - G
                                                     2       12.4300000      240.22904000    0.00000000
                                                     2        6.1707590       35.17194300    0.00000000
                                      P - G
                                                     2       11.0800000      170.41727600    0.00000000
                                                     2        5.8295540       28.47213300    0.00000000
                                      D - G
                                                     2        9.5100000       69.01384500    0.00000000
                                                     2        4.1397810       11.75086200    0.00000000
                                      F - G
                                                     2       13.2700000      -31.92955400    0.00000000
                                                     2        6.6300000       -5.39821700    0.00000000
   34         15
                                   No pseudopotential on this center.
   35          6
                                   No pseudopotential on this center.
   36          6
                                   No pseudopotential on this center.
   37          6
                                   No pseudopotential on this center.
   38          6
                                   No pseudopotential on this center.
   39          1
                                   No pseudopotential on this center.
   40          1
                                   No pseudopotential on this center.
   41          6
                                   No pseudopotential on this center.
   42          6
                                   No pseudopotential on this center.
   43          6
                                   No pseudopotential on this center.
   44          6
                                   No pseudopotential on this center.
   45          6
                                   No pseudopotential on this center.
   46          6
                                   No pseudopotential on this center.
   47          6
                                   No pseudopotential on this center.
   48          6
                                   No pseudopotential on this center.
   49          6
                                   No pseudopotential on this center.
   50          1
                                   No pseudopotential on this center.
   51          1
                                   No pseudopotential on this center.
   52          1
                                   No pseudopotential on this center.
   53          1
                                   No pseudopotential on this center.
   54          1
                                   No pseudopotential on this center.
   55          1
                                   No pseudopotential on this center.
   56          1
                                   No pseudopotential on this center.
   57          1
                                   No pseudopotential on this center.
   58          1
                                   No pseudopotential on this center.
   59          1
                                   No pseudopotential on this center.
   60          1
                                   No pseudopotential on this center.
   61          1
                                   No pseudopotential on this center.
   62          1
                                   No pseudopotential on this center.
   63          1
                                   No pseudopotential on this center.
   64          1
                                   No pseudopotential on this center.
   65          1
                                   No pseudopotential on this center.
   66          1
                                   No pseudopotential on this center.
   67          1
                                   No pseudopotential on this center.
   68          1
                                   No pseudopotential on this center.
   69          1
                                   No pseudopotential on this center.
   70          1
                                   No pseudopotential on this center.
   71          1
                                   No pseudopotential on this center.
   72          1
                                   No pseudopotential on this center.
   73          1
                                   No pseudopotential on this center.
   74          1
                                   No pseudopotential on this center.
   75          1
                                   No pseudopotential on this center.
   76          1
                                   No pseudopotential on this center.
 ======================================================================================================
 Ernie: Thresh=  0.10000D-02 Tol=  0.10000D-05 Strict=F.
 There are   813 symmetry adapted cartesian basis functions of A   symmetry.
 There are   769 symmetry adapted basis functions of A   symmetry.
   769 basis functions,  1319 primitive gaussians,   813 cartesian basis functions
   166 alpha electrons      166 beta electrons
       nuclear repulsion energy      6446.5064827862 Hartrees.
 IExCor= 1009 DFT=T Ex+Corr=PBE1PBE ExCW=0 ScaHFX=  0.250000
 ScaDFX=  0.750000  0.750000  1.000000  1.000000 ScalE2=  1.000000  1.000000
 IRadAn=      5 IRanWt=     -1 IRanGd=            0 ICorTp=0 IEmpDi=141
 NAtoms=   76 NActive=   76 NUniq=   76 SFac= 1.00D+00 NAtFMM=   60 NAOKFM=T Big=T
 Integral buffers will be    131072 words long.
 Raffenetti 2 integral format.
 Two-electron integral symmetry is turned on.
 R6Disp:  Grimme-D3(BJ) Dispersion energy=       -0.1252093395 Hartrees.
 Nuclear repulsion after empirical dispersion term =     6446.3812734467 Hartrees.
 Leave Link  301 at Sun Mar  3 12:35:03 2024, MaxMem=  4294967296 cpu:         0.3
 (Enter /cluster/apps/gaussian/g09/l302.exe)
 NPDir=0 NMtPBC=     1 NCelOv=     1 NCel=       1 NClECP=     1 NCelD=      1
         NCelK=      1 NCelE2=     1 NClLst=     1 CellRange=     0.0.
 One-electron integrals computed using PRISM.
   1 Symmetry operations used in ECPInt.
 ECPInt:  NShTT=   64620 NPrTT=  232188 LenC2=   54443 LenP2D=  126186.
 LDataN:  DoStor=T MaxTD1= 7 Len=  274
 NBasis=   769 RedAO= T EigKep=  1.18D-04  NBF=   769
 NBsUse=   769 1.00D-06 EigRej= -1.00D+00 NBFU=   769
 Precomputing XC quadrature grid using
 IXCGrd= 4 IRadAn=           5 IRanWt=          -1 IRanGd=           0 AccXCQ= 0.00D+00.
 Defaulting to unpruned grid for atomic number  46.
 Generated NRdTot=       0 NPtTot=           0 NUsed=           0 NTot=          32
 NSgBfM=   759   759   759   759   759 MxSgAt=    76 MxSgA2=    76.
 Leave Link  302 at Sun Mar  3 12:35:08 2024, MaxMem=  4294967296 cpu:        72.3
 (Enter /cluster/apps/gaussian/g09/l303.exe)
 DipDrv:  MaxL=1.
 Leave Link  303 at Sun Mar  3 12:35:09 2024, MaxMem=  4294967296 cpu:         5.0
 (Enter /cluster/apps/gaussian/g09/l401.exe)
 ExpMin= 3.70D-02 ExpMax= 1.04D+04 ExpMxC= 1.57D+03 IAcc=3 IRadAn=         5 AccDes= 0.00D+00
 Harris functional with IExCor= 1009 and IRadAn=       5 diagonalized for initial guess.
 HarFok:  IExCor= 1009 AccDes= 0.00D+00 IRadAn=         5 IDoV= 1 UseB2=F ITyADJ=14
 ICtDFT=  3500011 ScaDFX=  1.000000  1.000000  1.000000  1.000000
 Defaulting to unpruned grid for atomic number  46.
 Defaulting to unpruned grid for atomic number  46.
 Defaulting to unpruned grid for atomic number  46.
 Defaulting to unpruned grid for atomic number  46.
 Defaulting to unpruned grid for atomic number  46.
 Defaulting to unpruned grid for atomic number  46.
 Defaulting to unpruned grid for atomic number  46.
 Defaulting to unpruned grid for atomic number  46.
 Defaulting to unpruned grid for atomic number  46.
 Defaulting to unpruned grid for atomic number  46.
 Defaulting to unpruned grid for atomic number  46.
 Defaulting to unpruned grid for atomic number  46.
 Defaulting to unpruned grid for atomic number  46.
 Defaulting to unpruned grid for atomic number  46.
 Defaulting to unpruned grid for atomic number  46.
 Defaulting to unpruned grid for atomic number  46.
 FoFCou: FMM=F IPFlag=           0 FMFlag=      100000 FMFlg1=        2001
         NFxFlg=           0 DoJE=T BraDBF=F KetDBF=T FulRan=T
         wScrn=  0.000000 ICntrl=     500 IOpCl=  0 I1Cent=   200000004 NGrid=           0
         NMat0=    1 NMatS0=      1 NMatT0=    0 NMatD0=    1 NMtDS0=    0 NMtDT0=    0
 Petite list used in FoFCou.
 Harris En= -3055.16755504880    
 JPrj=0 DoOrth=F DoCkMO=F.
 Leave Link  401 at Sun Mar  3 12:35:16 2024, MaxMem=  4294967296 cpu:        91.7
 (Enter /cluster/apps/gaussian/g09/l502.exe)
 Closed shell SCF:
 Using DIIS extrapolation, IDIIS=  1040.
 Integral symmetry usage will be decided dynamically.
 IVT=     2020623 IEndB=     2020623 NGot=  4294967296 MDV=  4293625096
 LenX=  4293625096 LenY=  4292963314
 Requested convergence on RMS density matrix=1.00D-08 within 128 cycles.
 Requested convergence on MAX density matrix=1.00D-06.
 Requested convergence on             energy=1.00D-06.
 No special actions if energy rises.
 Fock matrices will be formed incrementally for  20 cycles.

 Cycle   1  Pass 1  IDiag  1:
 FoFJK:  IHMeth= 1 ICntrl=       0 DoSepK=F KAlg= 0 I1Cent=   0 FoldK=F
 IRaf= 930000000 NMat=   1 IRICut=       1 DoRegI=T DoRafI=F ISym2E= 0.
 FoFCou: FMM=T IPFlag=           0 FMFlag=      100000 FMFlg1=        2001
         NFxFlg=           0 DoJE=F BraDBF=F KetDBF=F FulRan=T
         wScrn=  0.000000 ICntrl=       0 IOpCl=  0 I1Cent=           0 NGrid=           0
         NMat0=    1 NMatS0=      1 NMatT0=    0 NMatD0=    1 NMtDS0=    0 NMtDT0=    0
 Symmetry not used in FoFCou.
 FMM levels:  10  Number of levels for PrismC:   9
 Defaulting to unpruned grid for atomic number  46.
 Defaulting to unpruned grid for atomic number  46.
 Defaulting to unpruned grid for atomic number  46.
 Defaulting to unpruned grid for atomic number  46.
 Defaulting to unpruned grid for atomic number  46.
 Defaulting to unpruned grid for atomic number  46.
 Defaulting to unpruned grid for atomic number  46.
 Defaulting to unpruned grid for atomic number  46.
 Defaulting to unpruned grid for atomic number  46.
 Defaulting to unpruned grid for atomic number  46.
 Defaulting to unpruned grid for atomic number  46.
 Defaulting to unpruned grid for atomic number  46.
 Defaulting to unpruned grid for atomic number  46.
 Defaulting to unpruned grid for atomic number  46.
 Defaulting to unpruned grid for atomic number  46.
 Defaulting to unpruned grid for atomic number  46.
 E= -3051.92536557059    
 DIIS: error= 4.55D-02 at cycle   1 NSaved=   1.
 NSaved= 1 IEnMin= 1 EnMin= -3051.92536557059     IErMin= 1 ErrMin= 4.55D-02
 ErrMax= 4.55D-02  0.00D+00 EMaxC= 1.00D-01 BMatC= 3.14D+00 BMatP= 3.14D+00
 IDIUse=3 WtCom= 5.45D-01 WtEn= 4.55D-01
 Coeff-Com:  0.100D+01
 Coeff-En:   0.100D+01
 Coeff:      0.100D+01
 Gap=     0.473 Goal=   None    Shift=    0.000
 GapD=    0.473 DampG=2.000 DampE=0.250 DampFc=0.5000 IDamp=-1.
 Damping current iteration by 5.00D-01
 RMSDP=1.30D-02 MaxDP=4.84D+00              OVMax= 7.19D-01

 Cycle   2  Pass 1  IDiag  1:
 RMSU=  6.48D-03    CP:  9.89D-01
 E= -3049.69618208334     Delta-E=        2.229183487249 Rises=F Damp=T
 DIIS: error= 3.14D-02 at cycle   2 NSaved=   2.
 NSaved= 2 IEnMin= 1 EnMin= -3051.92536557059     IErMin= 2 ErrMin= 3.14D-02
 ErrMax= 3.14D-02  0.00D+00 EMaxC= 1.00D-01 BMatC= 2.01D+00 BMatP= 3.14D+00
 IDIUse=3 WtCom= 6.86D-01 WtEn= 3.14D-01
 Coeff-Com:  0.429D+00 0.571D+00
 Coeff-En:   0.662D+00 0.338D+00
 Coeff:      0.502D+00 0.498D+00
 Gap=     0.317 Goal=   None    Shift=    0.000
 RMSDP=6.49D-03 MaxDP=2.18D+00 DE= 2.23D+00 OVMax= 5.67D-01

 Cycle   3  Pass 1  IDiag  1:
 RMSU=  3.24D-03    CP:  9.66D-01  1.34D-01
 E= -3053.24355981255     Delta-E=       -3.547377729203 Rises=F Damp=F
 DIIS: error= 2.96D-02 at cycle   3 NSaved=   3.
 NSaved= 3 IEnMin= 3 EnMin= -3053.24355981255     IErMin= 3 ErrMin= 2.96D-02
 ErrMax= 2.96D-02  0.00D+00 EMaxC= 1.00D-01 BMatC= 1.36D+00 BMatP= 2.01D+00
 IDIUse=3 WtCom= 7.04D-01 WtEn= 2.96D-01
 EnCoef did     1 forward-backward iterations
 Coeff-Com:  0.301D+00 0.345D+00 0.354D+00
 Coeff-En:   0.297D+00 0.561D-01 0.647D+00
 Coeff:      0.300D+00 0.259D+00 0.441D+00
 Gap=     0.219 Goal=   None    Shift=    0.000
 RMSDP=2.88D-03 MaxDP=2.03D-01 DE=-3.55D+00 OVMax= 4.91D-01

 Cycle   4  Pass 1  IDiag  1:
 RMSU=  2.16D-03    CP:  9.69D-01  1.56D-01  4.14D-01
 E= -3054.40090805156     Delta-E=       -1.157348239014 Rises=F Damp=F
 DIIS: error= 1.10D-02 at cycle   4 NSaved=   4.
 NSaved= 4 IEnMin= 4 EnMin= -3054.40090805156     IErMin= 4 ErrMin= 1.10D-02
 ErrMax= 1.10D-02  0.00D+00 EMaxC= 1.00D-01 BMatC= 2.32D-01 BMatP= 1.36D+00
 IDIUse=3 WtCom= 8.90D-01 WtEn= 1.10D-01
 Coeff-Com:  0.116D+00 0.298D-01 0.255D+00 0.600D+00
 Coeff-En:   0.000D+00 0.000D+00 0.154D+00 0.846D+00
 Coeff:      0.103D+00 0.265D-01 0.244D+00 0.627D+00
 Gap=     0.191 Goal=   None    Shift=    0.000
 RMSDP=1.34D-03 MaxDP=1.04D-01 DE=-1.16D+00 OVMax= 1.80D-01

 Cycle   5  Pass 1  IDiag  1:
 RMSU=  9.47D-04    CP:  9.65D-01  1.06D-01  5.14D-01  6.19D-01
 E= -3054.57293261047     Delta-E=       -0.172024558913 Rises=F Damp=F
 DIIS: error= 5.91D-03 at cycle   5 NSaved=   5.
 NSaved= 5 IEnMin= 5 EnMin= -3054.57293261047     IErMin= 5 ErrMin= 5.91D-03
 ErrMax= 5.91D-03  0.00D+00 EMaxC= 1.00D-01 BMatC= 7.94D-02 BMatP= 2.32D-01
 IDIUse=3 WtCom= 9.41D-01 WtEn= 5.91D-02
 Coeff-Com:  0.350D-01-0.147D-01 0.109D+00 0.424D+00 0.447D+00
 Coeff-En:   0.000D+00 0.000D+00 0.000D+00 0.254D+00 0.746D+00
 Coeff:      0.330D-01-0.138D-01 0.102D+00 0.414D+00 0.464D+00
 Gap=     0.145 Goal=   None    Shift=    0.000
 RMSDP=7.70D-04 MaxDP=4.36D-02 DE=-1.72D-01 OVMax= 1.06D-01

 Cycle   6  Pass 1  IDiag  1:
 RMSU=  4.15D-04    CP:  9.69D-01  1.15D-01  5.13D-01  7.09D-01  3.53D-01
 E= -3054.63858716281     Delta-E=       -0.065654552340 Rises=F Damp=F
 DIIS: error= 2.83D-03 at cycle   6 NSaved=   6.
 NSaved= 6 IEnMin= 6 EnMin= -3054.63858716281     IErMin= 6 ErrMin= 2.83D-03
 ErrMax= 2.83D-03  0.00D+00 EMaxC= 1.00D-01 BMatC= 1.17D-02 BMatP= 7.94D-02
 IDIUse=3 WtCom= 9.72D-01 WtEn= 2.83D-02
 Coeff-Com:  0.367D-03-0.470D-02 0.205D-01 0.116D+00 0.301D+00 0.567D+00
 Coeff-En:   0.000D+00 0.000D+00 0.000D+00 0.000D+00 0.152D+00 0.848D+00
 Coeff:      0.356D-03-0.457D-02 0.199D-01 0.113D+00 0.297D+00 0.575D+00
 Gap=     0.144 Goal=   None    Shift=    0.000
 RMSDP=2.51D-04 MaxDP=1.92D-02 DE=-6.57D-02 OVMax= 2.81D-02

 Cycle   7  Pass 1  IDiag  1:
 RMSU=  1.26D-04    CP:  9.67D-01  1.10D-01  5.13D-01  6.99D-01  5.21D-01
                    CP:  6.66D-01
 E= -3054.64825819596     Delta-E=       -0.009671033151 Rises=F Damp=F
 DIIS: error= 7.30D-04 at cycle   7 NSaved=   7.
 NSaved= 7 IEnMin= 7 EnMin= -3054.64825819596     IErMin= 7 ErrMin= 7.30D-04
 ErrMax= 7.30D-04  0.00D+00 EMaxC= 1.00D-01 BMatC= 1.04D-03 BMatP= 1.17D-02
 IDIUse=3 WtCom= 9.93D-01 WtEn= 7.30D-03
 Coeff-Com: -0.349D-02 0.134D-02 0.446D-03 0.140D-01 0.120D+00 0.326D+00
 Coeff-Com:  0.542D+00
 Coeff-En:   0.000D+00 0.000D+00 0.000D+00 0.000D+00 0.000D+00 0.988D-02
 Coeff-En:   0.990D+00
 Coeff:     -0.346D-02 0.133D-02 0.443D-03 0.139D-01 0.119D+00 0.323D+00
 Coeff:      0.546D+00
 Gap=     0.145 Goal=   None    Shift=    0.000
 RMSDP=6.21D-05 MaxDP=3.92D-03 DE=-9.67D-03 OVMax= 7.15D-03

 Cycle   8  Pass 1  IDiag  1:
 RMSU=  3.94D-05    CP:  9.67D-01  1.11D-01  5.16D-01  6.96D-01  5.28D-01
                    CP:  7.22D-01  6.90D-01
 E= -3054.64913872849     Delta-E=       -0.000880532529 Rises=F Damp=F
 DIIS: error= 1.94D-04 at cycle   8 NSaved=   8.
 NSaved= 8 IEnMin= 8 EnMin= -3054.64913872849     IErMin= 8 ErrMin= 1.94D-04
 ErrMax= 1.94D-04  0.00D+00 EMaxC= 1.00D-01 BMatC= 8.99D-05 BMatP= 1.04D-03
 IDIUse=3 WtCom= 9.98D-01 WtEn= 1.94D-03
 Coeff-Com: -0.212D-02 0.168D-02-0.637D-03 0.343D-02 0.465D-01 0.129D+00
[...]
 .00004898,0.00001385,-0.00001258,0.00001210,-0.00000255,-0.00003779,-0
 .00000791,-0.00000147,-0.00000947,-0.00000521,0.00002082,-0.00000857,0
 .00000002,-0.00003842,-0.00001081,-0.00003195,0.00000080,-0.00002319,0
 .00000084,-0.00000643,0.00000284,-0.00000472,0.00000007,0.00001296,-0.
 00000162,0.00000725,-0.00002892,0.00001269,-0.00000010,0.00000285,-0.0
 0000710,-0.00001526,-0.00002102,0.00000008,0.00000676,-0.00000393,0.00
 002950,-0.00002568,-0.00007227,0.00010438,0.00001747,0.00009876,-0.000
 12518,0.00005890,-0.00018473,-0.00001377,-0.00001709,-0.00001251,-0.00
 001322,0.00002926,-0.00001166,0.00000530,0.00000585,0.00000090,-0.0002
 0895,0.00010822,0.00037875,0.00008498,0.00003060,-0.00015400,0.0001055
 0,0.00079794,0.00023377,-0.00001151,0.00007695,-0.00000225,0.00025990,
 -0.00004345,0.00051314,-0.00005964,0.00019698,0.00013624,-0.07999649,0
 .11409537,0.24920635,0.00038694,0.00017485,-0.00016802,-0.00011191,-0.
 00012179,-0.00013919,0.00000289,-0.00001712,0.00001635,-0.00000611,0.0
 0005907,0.00000203,-0.00000460,-0.00000849,-0.00001130,0.00000102,0.00
 000680,0.00009632,-0.00002791,-0.00001527,-0.00006982,-0.00001090,-0.0
 0000272,-0.00000871,0.00002141,-0.00001573,0.00003168,0.00004826,0.000
 02568,-0.00002738,0.00004191,0.00012336,0.00003449,0.00004879,0.000103
 53,-0.00009467,0.00006662,0.00008592,-0.00009869,0.00010443,0.00022031
 ,0.00001604,-0.00003760,0.00016101,-0.00003378,-0.00010672,0.00002906,
 0.00015819,0.00012800,-0.00019701,0.00011398,-0.00002193,0.00004555,-0
 .00002879,-0.00004295,0.00004749,-0.00000618,0.00000648,0.00003159,-0.
 00001566,-0.00000807,-0.00000274,0.00000069,-0.00001021,-0.00000622,-0
 .00000265,0.00000328,-0.00000339,0.00000103,-0.00008165,-0.00020882,-0
 .00008639,-0.00001694,-0.00001458,0.00010986,-0.00006624,-0.00015350,0
 .00012270,-0.00002681,-0.00016470,-0.00003967,-0.00004962,-0.00010121,
 -0.00007308,0.00002543,0.00005691,-0.00002086,0.00000161,-0.00000780,0
 .00000818,-0.00000327,-0.00000263,0.00000732,-0.00000221,-0.00000454,-
 0.00000259,-0.00024023,-0.00039008,0.00034845,-0.00023331,0.00035739,-
 0.00025369,0.00111618,-0.00065201,-0.00066422,0.00005137,-0.00012838,-
 0.00003604,0.00025344,0.00009398,0.00006598,0.00518938,-0.02510102,0.0
 0511728,-0.00008665,0.00052031,0.00006452,0.00010862,0.00003760,-0.000
 28450,0.00003006,0.00004410,-0.00000679,-0.00000346,0.00000981,0.00001
 813,0.00001374,0.00004503,-0.00000352,-0.00009428,-0.00003844,0.000065
 69,-0.00031190,0.00017855,-0.00012622,-0.00002651,-0.00008025,0.000046
 58,-0.00449953,-0.00215690,0.00186868,0.00156691,-0.00111246,0.0006065
 8,-0.05719229,0.05532922,-0.01265000,-0.00000076,0.00000236,0.00000878
 ,0.00001593,-0.00001274,-0.00000856,-0.00000629,0.00000365,-0.00000947
 ,-0.00000369,0.00000308,0.00000908,0.00004812,-0.00002995,-0.00002298,
 -0.00004966,-0.00000566,-0.00003714,0.00000222,0.00000200,0.00000168,-
 0.00000392,-0.00002396,0.00002201,0.00001233,-0.00000851,-0.00001070,0
 .00000396,0.00001576,0.00000559,-0.00000461,-0.00001660,-0.00002380,0.
 00001150,-0.00000466,0.00004866,0.00002424,0.00000158,0.00014653,-0.00
 006605,0.00003183,-0.00014444,0.00053011,-0.00021411,-0.00002001,0.000
 02159,-0.00002668,-0.00001704,0.00000111,0.00001945,0.00000096,-0.0000
 2738,0.00001280,0.00000789,0.00040794,-0.00167574,0.00035761,0.0000475
 3,0.00002743,0.00020217,-0.00010239,0.00004774,-0.00014986,-0.00034359
 ,0.00046051,-0.00012132,-0.00006162,0.00005619,-0.00009477,0.00026960,
 0.00024812,0.00005962,-0.00282790,0.00800497,-0.00328464,0.05988923,-0
 .00037172,0.00000400,-0.00002581,0.00006042,0.00005319,0.00008028,-0.0
 0001526,0.00001072,-0.00000545,0.00001491,-0.00002905,-0.00000981,0.00
 000469,0.00000222,0.00000670,-0.00000758,-0.00001979,-0.00008081,0.000
 03197,0.00000359,0.00005616,0.00001073,0.00000130,0.00000592,0.0000100
 3,0.00005462,-0.00002367,-0.00002616,0.00002742,0.00005517,-0.00001249
 ,-0.00008107,-0.00003083,-0.00002602,-0.00007310,0.00007125,-0.0000271
 1,-0.00003655,0.00006897,-0.00006108,-0.00018397,-0.00008171,-0.000045
 85,-0.00008858,0.00003770,0.00007839,-0.00006480,-0.00011063,-0.000116
 26,0.00000595,-0.00011951,0.00003830,0.00001003,0.00001973,0.00004777,
 -0.00000869,0.00002996,-0.00001244,-0.00000656,0.00001230,0.00001219,0
 .00000746,-0.00000313,0.00000216,0.00000239,-0.00000189,0.00000239,0.0
 0000401,0.00000023,0.00007564,0.00014885,0.00007063,0.00001126,0.00000
 988,-0.00007427,0.00003981,0.00009527,-0.00007797,0.00001287,0.0001002
 6,0.00002554,0.00004713,0.00009736,0.00007343,-0.00002348,-0.00005375,
 0.00001888,-0.00000083,0.00000777,-0.00000780,0.00000305,0.00000283,-0
 .00000704,0.00000212,0.00000403,0.00000244,0.00010613,-0.00007851,-0.0
 0000381,0.00008343,-0.00027342,0.00009001,0.00062156,0.00060212,-0.000
 81464,-0.00004580,0.00004297,0.00002226,-0.00023028,-0.00011477,-0.000
 05181,0.00462113,-0.01381173,0.00184237,-0.00040116,0.00042931,0.00051
 612,-0.00006942,0.00025643,-0.00006525,0.00000172,0.00000562,0.0000114
 0,0.00000285,0.00001187,-0.00002671,0.00001198,0.00001870,-0.00000315,
 0.00009154,0.00008041,-0.00008175,0.00017435,-0.00039564,-0.00010942,0
 .00005143,0.00008054,0.00003075,-0.00416518,-0.00027057,0.00131765,0.0
 0133514,0.00044304,0.00015782,0.05343941,-0.29217290,0.05901674,0.0000
 0062,-0.00000945,-0.00000201,0.00000040,0.00000352,-0.00000042,-0.0000
 0592,0.00001095,0.00001849,0.00000251,0.00002294,0.00003153,0.00006697
 ,-0.00002888,-0.00000088,-0.00004520,0.00001712,-0.00005137,0.00000534
 ,-0.00000153,0.00001642,-0.00000803,0.00000645,-0.00000528,-0.00000416
 ,0.00000344,-0.00000693,-0.00000262,-0.00001535,-0.00000294,0.00001056
 ,0.00001731,0.00003077,-0.00000363,-0.00000018,-0.00005928,-0.00006554
 ,-0.00001440,-0.00020368,-0.00001452,0.00000417,0.00005502,-0.00020882
 ,0.00015343,-0.00056967,-0.00002117,0.00002910,0.00001380,-0.00002876,
 -0.00000699,0.00000859,0.00001356,-0.00001660,-0.00002487,0.00020839,-
 0.00102516,0.00039705,0.00023983,0.00017100,-0.00000576,0.00005359,0.0
 0046109,0.00005506,-0.00076520,0.00037282,-0.00033960,-0.00002314,-0.0
 0012809,0.00003877,-0.00003640,0.00040618,-0.00008193,0.00194708,-0.01
 125787,0.00479485,-0.05544978,0.31504935,0.00043649,0.00013660,-0.0001
 3361,-0.00009730,-0.00010799,-0.00011877,0.00000668,-0.00001229,0.0000
 1332,-0.00000287,0.00004638,-0.00000851,-0.00000774,-0.00000595,-0.000
 01057,-0.00000659,-0.00000313,0.00005924,-0.00002666,-0.00002231,-0.00
 005471,-0.00001468,-0.00000099,-0.00000602,0.00000475,-0.00001676,0.00
 003423,0.00005039,-0.00000920,-0.00001901,0.00001153,0.00007761,0.0000
 6276,-0.00001431,-0.00001918,0.00001320,0.00001163,0.00002747,0.000014
 17,-0.00007161,-0.00012183,-0.00010669,0.00000085,0.00014826,-0.000061
 14,-0.00008549,0.00008035,0.00017589,0.00009448,-0.00011673,0.00002424
 ,-0.00002872,0.00001694,-0.00000309,-0.00002855,0.00002968,0.00002368,
 0.00000118,0.00002065,-0.00000396,-0.00000273,-0.00000393,0.00000180,-
 0.00000599,-0.00000374,-0.00000221,0.00000188,-0.00000072,0.00000116,0
 .00004899,0.00006741,0.00005274,0.00000145,0.00000138,0.00000251,-0.00
 000580,-0.00000554,-0.00000036,-0.00000411,-0.00008122,-0.00002919,-0.
 00002754,-0.00007079,-0.00005205,0.00000917,0.00003924,-0.00001707,0.0
 0000084,-0.00000771,0.00000698,0.00000008,-0.00000297,0.00000466,-0.00
 000154,-0.00000313,-0.00000041,-0.00019228,-0.00030504,0.00032373,-0.0
 0022571,0.00058512,-0.00035517,-0.00089156,0.00088862,0.00044284,0.000
 12257,-0.00013374,-0.00007974,0.00036265,0.00013554,0.00010654,-0.0032
 7154,0.01035700,-0.00414125,0.00047094,-0.00039321,-0.00013640,-0.0000
 5971,-0.00020804,0.00016713,0.00000800,0.00002385,-0.00001786,-0.00003
 765,-0.00002826,0.00005936,-0.00001964,-0.00000776,0.00001359,-0.00015
 199,-0.00006573,0.00008563,-0.00040998,0.00009630,-0.00062075,-0.00009
 021,-0.00012879,-0.00000349,0.00227845,0.00048036,-0.00066488,-0.00054
 173,-0.00077034,0.00016246,-0.01217353,0.05916500,-0.05915442,0.000018
 40,0.00000586,0.00000549,0.00001026,-0.00001890,0.00000412,0.00000568,
 -0.00000541,-0.00001925,-0.00000072,-0.00002297,-0.00000568,-0.0000110
 5,0.00001578,0.00001599,0.00000824,-0.00001222,0.00002331,-0.00000089,
 0.00000651,-0.00001589,-0.00000245,-0.00001322,0.00001538,0.00000805,-
 0.00001075,0.00001205,0.00000564,0.00001510,0.00000190,-0.00000759,-0.
 00001136,-0.00002831,0.00001593,-0.00000409,0.00008761,0.00006058,0.00
 002534,0.00029063,-0.00004328,0.00004179,-0.00001768,0.00012817,-0.000
 80812,-0.00054645,0.00004219,-0.00002434,-0.00000412,0.00006345,-0.000
 01180,0.00000673,-0.00002863,0.00002470,0.00003747,-0.00009469,0.00084
 082,0.00045753,0.00009714,-0.00029686,0.00007542,-0.00008956,0.0002649
 2,0.00022570,-0.00000443,-0.00010738,0.00037439,0.00009164,-0.00016114
 ,-0.00001189,0.00001046,-0.00005423,-0.00018563,0.00489783,-0.02448009
 ,0.00725513,0.01174309,-0.06448365,0.05980914,0.00068799,0.00017429,-0
 .00045661,-0.00021303,-0.00019907,-0.00021273,0.00002394,-0.00003939,0
 .00001860,-0.00001390,0.00009487,0.00001029,-0.00000610,-0.00001339,-0
 .00001639,-0.00000575,-0.00001352,0.00011810,-0.00006038,-0.00000153,-
 0.00005839,0.00000025,-0.00000654,-0.00001099,0.00001022,0.00003136,-0
 .00001421,0.00012704,-0.00019727,-0.00008797,-0.00001655,-0.00009028,-
 0.00005567,-0.00010799,-0.00007202,0.00002917,0.00009332,-0.00006768,0
 .00019114,-0.00006441,0.00008786,-0.00000386,-0.00033276,0.00050272,-0
 .00034754,-0.00023053,0.00026340,0.00028166,0.00017304,-0.00015571,0.0
 0002654,-0.00007907,0.00003723,0.00004200,-0.00005783,0.00005409,0.000
 04872,0.00000706,0.00004168,-0.00002455,-0.00000365,-0.00001155,0.0000
 1393,-0.00001041,-0.00000652,0.00000196,0.00000501,-0.00000831,-0.0000
 0273,-0.00005510,0.00008993,0.00002519,-0.00001431,-0.00000095,-0.0000
 1961,0.00004197,0.00003774,-0.00001395,0.00002197,0.00009461,0.0000661
 7,-0.00005015,-0.00008794,-0.00006834,0.00003511,0.00004097,-0.0000131
 7,0.00000050,-0.00000335,0.00000521,-0.00000663,0.00000014,0.00000737,
 -0.00000235,-0.00000378,-0.00000299,-0.00082444,-0.00099820,0.00208504
 ,-0.00005990,0.00007622,0.00019934,0.00095325,0.00021645,-0.00131429,0
 .00022123,-0.00034028,0.00014169,-0.00006226,-0.00003646,0.00014948,-0
 .01843941,0.00179035,-0.01775863,-0.00010622,-0.00001935,0.00004957,0.
 00011950,-0.00015373,-0.00011972,0.00008859,0.00015274,-0.00013281,-0.
 00000722,-0.00002246,-0.00007279,0.00004443,0.00001475,0.00002039,0.00
 004811,0.00002835,-0.00003519,0.00004458,-0.00038076,-0.00006153,-0.00
 000536,0.00001467,-0.00004022,0.00069383,0.00139895,-0.00050964,-0.003
 83529,-0.00318010,0.00341530,-0.19081106,0.00403381,-0.13209318,-0.000
 00681,-0.00000756,-0.00001052,0.00006129,-0.00002522,-0.00004734,-0.00
 000221,-0.00000657,0.00001061,0.00001150,0.00002441,0.00000516,0.00002
 151,0.00000122,0.00000237,-0.00000782,-0.00000426,-0.00000851,0.000000
 06,-0.00000319,0.00000755,-0.00001522,-0.00000373,0.00002405,0.0000094
 8,0.00000841,-0.00001485,0.00001109,-0.00000349,0.00002175,0.00001158,
 -0.00000202,0.00001736,-0.00000320,0.00000469,-0.00002849,0.00004106,-
 0.00006905,-0.00022595,0.00017807,-0.00014908,-0.00004795,-0.00016442,
 0.00033742,-0.00011939,-0.00000456,-0.00001187,0.00001311,-0.00000251,
 -0.00001020,0.00001641,0.00001550,0.00000078,-0.00001181,0.00007616,0.
 00014594,0.00026758,0.00033318,-0.00055723,0.00040974,-0.00003110,-0.0
 0006708,0.00008330,0.00027186,0.00005500,0.00019347,0.00023764,-0.0000
 7302,-0.00003115,-0.00128113,-0.00006826,-0.00122373,0.00826455,-0.000
 36683,0.00801147,-0.00368052,-0.00125440,-0.00234868,0.20769608,0.0009
 4472,0.00024618,-0.00010758,-0.00015966,-0.00021292,-0.00021729,0.0000
 0944,0.00000355,0.00002135,-0.00001719,0.00009447,-0.00000053,-0.00000
 837,-0.00001396,-0.00001843,0.00000845,0.00000207,0.00015659,-0.000044
 05,-0.00004490,-0.00012344,-0.00001837,-0.00000412,-0.00001031,-0.0000
 9874,-0.00000535,-0.00003237,0.00029531,-0.00010961,-0.00013066,-0.000
 16268,0.00012456,0.00011054,0.00012088,-0.00005740,-0.00000518,-0.0001
 2594,0.00025854,-0.00007202,0.00015054,0.00011081,0.00012620,0.0001401
 1,0.00046454,-0.00005759,-0.00016967,0.00005162,0.00043361,0.00018689,
 -0.00023740,0.00018708,-0.00002928,0.00006844,-0.00007773,-0.00009913,
 0.00008834,-0.00002555,0.00001683,0.00003684,-0.00002097,-0.00000516,-
 0.00000679,0.00000691,-0.00001237,-0.00000585,-0.00000355,0.00000586,0
 .00000007,-0.00000230,0.00005180,-0.00034419,-0.00014198,0.00001633,-0
 .00004138,0.00006741,-0.00002944,-0.00007879,0.00005982,0.00001321,-0.
 00016833,-0.00004129,-0.00007305,-0.00014958,-0.00011975,0.00003520,0.
 00008084,-0.00002852,0.00000097,-0.00001259,0.00001204,-0.00000402,-0.
 00000416,0.00001096,-0.00000349,-0.00000667,-0.00000332,-0.00034757,-0
 .00074830,0.00051528,-0.00050938,0.00061361,0.00002031,0.00075907,0.00
 019137,-0.00012096,0.00009447,-0.00008296,-0.00008568,0.00030371,0.000
 15679,-0.00003720,-0.00928320,-0.00088787,-0.01100720,0.00002625,-0.00
 007385,0.00020500,0.00003187,-0.00016664,-0.00004109,0.00001805,0.0000
 1293,-0.00000564,-0.00003895,-0.00000322,0.00004629,-0.00004231,0.0000
 2801,0.00000075,-0.00010481,-0.00003689,0.00005238,0.00005566,-0.00011
 669,-0.00024174,-0.00007868,-0.00014912,0.00009089,-0.00054848,0.00090
 496,-0.00108295,-0.00222993,-0.00131713,0.00132695,0.00290681,-0.04603
 368,0.00257952,0.00001159,0.00000144,-0.00000057,0.00000321,-0.0000107
 9,-0.00000139,0.00000348,-0.00000151,-0.00001287,-0.00000024,-0.000017
 84,-0.00000329,0.00000307,0.00000447,0.00000038,-0.00001188,-0.0000280
 5,0.00001089,-0.00000663,0.00000932,-0.00000832,-0.00002207,-0.0000609
 5,0.00003091,0.00002259,-0.00001795,0.00000782,-0.00002193,0.00001147,
 0.00003327,-0.00000858,-0.00000598,-0.00002626,0.00000925,-0.00000398,
 0.00006863,-0.00006948,0.00005357,0.00024963,-0.00033428,-0.00011515,-
 0.00067899,0.00059336,-0.00070265,0.00007062,0.00004840,-0.00003128,-0
 .00000950,0.00001409,-0.00000153,0.00000565,-0.00005689,0.00002972,0.0
 0001412,0.00021465,0.00014252,0.00005710,-0.00004164,-0.00029831,0.000
 53613,-0.00007695,-0.00001677,-0.00009142,-0.00025242,0.00028888,-0.00
 009546,0.00017804,-0.00001147,0.00031965,-0.00092905,0.00052292,-0.000
 39577,-0.01160791,-0.00008171,-0.00892121,0.02145160,0.00091498,0.0195
 1896,-0.00106187,0.04700842,-0.00104287,-0.00006188,-0.00038080,0.0000
 6919,0.00002982,0.00009390,-0.00002964,0.00000792,-0.00003263,-0.00000
 313,-0.00004961,-0.00006087,0.00000639,0.00000582,0.00000695,0.0000162
 8,0.00002511,-0.00010884,0.00008856,0.00001325,0.00006604,0.00000702,0
 .00001009,0.00002532,0.00006287,0.00004711,-0.00005253,0.00003856,0.00
 024687,0.00033108,-0.00003965,0.00014300,0.00012399,0.00013373,0.00016
 882,-0.00005995,0.00003752,0.00006918,-0.00030255,0.00028652,0.0001218
 5,-0.00006577,-0.00094731,-0.00016404,0.00027091,0.00003903,-0.0001323
 4,-0.00029091,-0.00024011,-0.00009374,0.00010331,0.00018177,-0.0000080
 5,-0.00008837,0.00008388,-0.00007643,-0.00011982,-0.00003465,-0.000005
 65,0.00001487,0.00000615,0.00003025,-0.00003713,0.00000466,0.00000107,
 -0.00000748,-0.00000362,0.00000446,0.00000239,0.00000319,-0.00036452,-
 0.00014438,0.00003420,-0.00002679,-0.00005465,-0.00001525,-0.00005443,
 0.00001408,-0.00001219,-0.00013262,-0.00008376,0.00004667,0.00008242,0
 .00005861,-0.00003116,-0.00004330,0.00001938,-0.00000300,0.00000596,-0
 .00000452,0.00000796,-0.00000078,-0.00000616,0.00000171,0.00000336,-0.
 00000019,0.00076750,-0.00018179,0.00106760,0.00123162,0.00001428,-0.00
 111910,-0.00052015,-0.00026593,0.00062623,0.00013841,0.00000490,0.0000
 1422,-0.00031119,0.00004006,0.00009727,0.00889084,-0.00076894,0.008589
 52,-0.00002139,-0.00001949,0.00004837,-0.00025283,0.00007456,0.0000441
 4,0.00002052,-0.00000028,-0.00001450,-0.00000682,-0.00000967,-0.000004
 36,-0.00001421,-0.00003583,0.00003952,0.00000226,0.00000874,-0.0000427
 9,0.00022314,-0.00053546,-0.00023582,0.00006583,0.00009820,0.00003024,
 0.00007669,-0.00050239,0.00039568,0.00196787,0.00086257,-0.00039302,-0
 .13197672,0.00376589,-0.16476699,0.00000036,0.00000400,-0.00000961,-0.
 00000061,-0.00000350,-0.00000131,0.00000149,0.00000280,0.00000387,-0.0
 0000599,-0.00000753,0.00000360,-0.00001231,0.00001039,0.00000335,0.000
 01926,0.00000942,0.00001193,-0.00000720,0.00000524,0.00000135,-0.00002
 062,-0.00001149,-0.00001307,-0.00000713,-0.00000077,0.00001928,0.00000
 037,-0.00001538,0.00000648,0.00001301,0.00002239,0.00000927,-0.0000032
 2,0.00000821,-0.00000464,-0.00001331,0.00001577,-0.00010943,0.00002034
 ,-0.00036404,-0.00017645,-0.00018000,-0.00019413,-0.00015223,-0.000038
 27,0.00002815,0.00000669,-0.00000631,-0.00000901,-0.00000051,-0.000001
 72,-0.00000078,0.00000018,0.00004614,-0.00014906,0.00002173,-0.0000412
 1,-0.00007528,-0.00000206,-0.00008375,0.00002778,-0.00009881,0.0000343
 3,0.00001290,-0.00013243,0.00012712,0.00021409,0.00022051,0.00065453,0
 .00019723,0.00061546,-0.01852793,0.00221232,-0.01465731,-0.00263729,-0
 .00144559,-0.00391359,0.14163526,-0.00284572,0.17474204\\0.00000076,0.
 00000018,-0.00000165,-0.00000057,0.00000021,0.00000051,-0.00000127,0.0
 0000105,0.00000095,0.00000023,0.00000157,0.00000012,0.00000005,0.00000
 149,0.00000012,0.00000015,0.00000083,-0.00000035,0.00000010,0.00000021
 ,-0.00000041,0.00000027,-0.00000007,-0.00000100,0.00000075,-0.00000064
 ,-0.00000016,0.00000049,-0.00000089,-0.00000014,0.00000021,-0.00000117
 ,-0.00000067,0.00000002,-0.00000167,-0.00000043,-0.00000002,-0.0000020
 3,0.00000003,-0.00000008,-0.00000145,0.00000043,-0.00000057,-0.0000023
 2,-0.00000102,0.00000044,0.00000133,0.00000198,-0.00000006,-0.00000029
 ,0.00000184,-0.00000069,0.00000019,0.00000154,-0.00000043,-0.00000093,
 0.00000163,-0.00000036,-0.00000016,0.00000114,-0.00000025,-0.00000069,
 0.00000081,-0.00000046,-0.00000004,0.00000154,-0.00000028,0.00000022,0
 .00000088,-0.00000034,-0.00000161,0.00000092,-0.00000002,-0.00000249,0
 .00000012,0.00000029,-0.00000214,-0.00000091,0.00000034,-0.00000094,-0
 .00000108,0.00000009,0.00000117,-0.00000090,0.00000043,0.00000093,-0.0
 0000129,0.00000045,0.00000077,-0.00000159,0.00000035,0.00000059,-0.000
 00122,0.00000044,0.00000128,-0.00000153,0.00000062,0.00000116,0.000003
 57,-0.00000117,0.00000193,0.00000136,-0.00000104,-0.00000046,0.0000007
 0,0.00000190,-0.00000216,-0.00000006,-0.00000208,0.00000173,-0.0000056
 7,0.00000013,-0.00000088,0.00000028,-0.00000091,-0.00000020,-0.0000000
 8,0.00000064,-0.00000026,0.00000011,-0.00000249,0.00000245,-0.00000446
 ,-0.00000410,0.00000220,0.00000021,0.00000268,-0.00000163,-0.00000100,
 -0.00000257,0.00000154,0.00000256,0.00000189,-0.00000101,-0.00000022,0
 .00000171,0.00000152,-0.00000169,-0.00000040,-0.00000103,0.00000018,-0
 .00000002,-0.00000073,0.00000024,-0.00000019,-0.00000081,0.00000006,-0
 .00000037,-0.00000123,0.00000244,-0.00000010,0.00000139,-0.00000036,-0
 .00000048,0.00000269,-0.00000137,-0.00000054,0.00000132,0.00000157,0.0
 0000025,-0.00000024,0.00000219,-0.00000013,0.00000056,0.00000185,0.000
 00014,0.00000287,0.00000014,0.00000049,0.00000005,0.00000223,0.0000001
 6,0.00000228,0.00000132,0.00000167,0.00000152,-0.00000139,0.00000050,0
 .00000085,-0.00000112,0.00000287,0.00000049,-0.00000158,0.00000068,-0.
 00000019,-0.00000133,-0.00000150,0.00000002,-0.00000123,0.00000010,-0.
 00000025,-0.00000110,0.00000040,0.00000042,-0.00000021,0.00000095,0.00
 000141,-0.00000241,0.00000057,0.00000044,0.00000034,-0.00000010,-0.000
 00043,0.00000061,-0.00000070,-0.00000093,0.00000155,-0.00000004,-0.000
 00108,0.00000117,0.00000056,-0.00000117,-0.00000073,-0.00000037,-0.000
 00222,0.00000068,-0.00000037,-0.00000024,0.00000074,-0.00000022,-0.000
 00135,0.00000003,0.00000015,-0.00000108,0.00000004,0.00000036,-0.00000
 173,-0.00000040\\\@


    THE DOUGHNUT CREED
 AS YOU RAMBLE ON THROUGH LIFE, BROTHER
 WHATEVER BE YOUR GOAL
 KEEP YOUR EYE UPON THE DOUGHNUT
 AND NOT UPON THE HOLE.
 Job cpu time:       1 days  0 hours 16 minutes 45.1 seconds.
 File lengths (MBytes):  RWF=   4783 Int=      0 D2E=      0 Chk=     46 Scr=      1
 Normal termination of Gaussian 09 at Sun Mar  3 16:26:38 2024.
