
                                 *****************
                                 * O   R   C   A *
                                 *****************

           --- An Ab Initio, DFT and Semiempirical electronic structure package ---

                  #######################################################
                  #                        -***-                        #
                  #          Department of theory and spectroscopy      #
                  #               Directorship: Frank Neese             #
                  #        Max Planck Institute fuer Kohlenforschung    #
                  #                Kaiser Wilhelm Platz 1               #
                  #                 D-45470 Muelheim/Ruhr               #
                  #                      Germany                        #
                  #                                                     #
                  #                  All rights reserved                #
                  #                        -***-                        #
                  #######################################################


                         Program Version 4.2.0 -  RELEASE  -


 With contributions from (in alphabetic order):
   Daniel Aravena         : Magnetic Suceptibility
   Michael Atanasov       : Ab Initio Ligand Field Theory (pilot matlab implementation)
   Alexander A. Auer      : GIAO ZORA, VPT2
   Ute Becker             : Parallelization
   Giovanni Bistoni       : ED, misc. LED, open-shell LED, HFLED
   Martin Brehm           : Molecular dynamics
   Dmytro Bykov           : SCF Hessian
   Vijay G. Chilkuri      : MRCI spin determinant printing, contributions to CSF-ICE
   Dipayan Datta          : RHF DLPNO-CCSD density
   Achintya Kumar Dutta   : EOM-CC, STEOM-CC
   Dmitry Ganyushin       : Spin-Orbit,Spin-Spin,Magnetic field MRCI
   Miquel Garcia          : C-PCM Hessian, Gaussian charge scheme
   Yang Guo               : DLPNO-NEVPT2, CIM, IAO-localization
   Andreas Hansen         : Spin unrestricted coupled pair/coupled cluster methods
   Benjamin Helmich-Paris : CASSCF linear response (MC-RPA)
   Lee Huntington         : MR-EOM, pCC
   Robert Izsak           : Overlap fitted RIJCOSX, COSX-SCS-MP3, EOM
   Christian Kollmar      : KDIIS, OOCD, Brueckner-CCSD(T), CCSD density
   Simone Kossmann        : Meta GGA functionals, TD-DFT gradient, OOMP2, MP2 Hessian
   Martin Krupicka        : AUTO-CI
   Lucas Lang             : DCDCAS
   Dagmar Lenk            : GEPOL surface, SMD
   Dimitrios Liakos       : Extrapolation schemes; Compound Job, initial MDCI parallelization
   Dimitrios Manganas     : Further ROCIS development; embedding schemes
   Dimitrios Pantazis     : SARC Basis sets
   Taras Petrenko         : DFT Hessian,TD-DFT gradient, ASA, ECA, R-Raman, ABS, FL, XAS/XES, NRVS
   Peter Pinski           : DLPNO-MP2, DLPNO-MP2 Gradient
   Christoph Reimann      : Effective Core Potentials
   Marius Retegan         : Local ZFS, SOC
   Christoph Riplinger    : Optimizer, TS searches, QM/MM, DLPNO-CCSD(T), (RO)-DLPNO pert. Triples
   Tobias Risthaus        : Range-separated hybrids, TD-DFT gradient, RPA, STAB
   Michael Roemelt        : Original ROCIS implementation
   Masaaki Saitow         : Open-shell DLPNO-CCSD energy and density
   Barbara Sandhoefer     : DKH picture change effects
   Avijit Sen             : IP-ROCIS
   Kantharuban Sivalingam : CASSCF convergence, NEVPT2, FIC-MRCI
   Bernardo de Souza      : ESD, SOC TD-DFT
   Georgi Stoychev        : AutoAux, RI-MP2 NMR
   Willem Van den Heuvel  : Paramagnetic NMR
   Boris Wezisla          : Elementary symmetry handling
   Frank Wennmohs         : Technical directorship


 We gratefully acknowledge several colleagues who have allowed us to
 interface, adapt or use parts of their codes:
   Stefan Grimme, W. Hujo, H. Kruse,             : VdW corrections, initial TS optimization,
                  C. Bannwarth                     DFT functionals, gCP, sTDA/sTD-DF
   Ed Valeev, F. Pavosevic, A. Kumar             : LibInt (2-el integral package), F12 methods
   Garnet Chan, S. Sharma, J. Yang, R. Olivares  : DMRG
   Ulf Ekstrom                                   : XCFun DFT Library
   Mihaly Kallay                                 : mrcc  (arbitrary order and MRCC methods)
   Andreas Klamt, Michael Diedenhofen            : otool_cosmo (COSMO solvation model)
   Jiri Pittner, Ondrej Demel                    : Mk-CCSD
   Frank Weinhold                                : gennbo (NPA and NBO analysis)
   Christopher J. Cramer and Donald G. Truhlar   : smd solvation model
   Lars Goerigk                                  : TD-DFT with DH, B97 family of functionals
   V. Asgeirsson, H. Jonsson                     : NEB implementation
   FAccTs GmbH                                   : IRC, NEB, NEB-TS, Multilevel, MM, QM/MM, CI optimization
   S Lehtola, MJT Oliveira, MAL Marques          : LibXC Library


 Your calculation uses the libint2 library for the computation of 2-el integrals
 For citations please refer to: http://libint.valeyev.net

 Your ORCA version has been built with support for libXC version: 4.2.3
 For citations please refer to: https://tddft.org/programs/libxc/

 This ORCA versions uses:
   CBLAS   interface :  Fast vector & matrix operations
   LAPACKE interface :  Fast linear algebra routines
   SCALAPACK package :  Parallel linear algebra routines




***************************************
The coordinates will be read from file: xtbopt.xyz
***************************************


Your calculation utilizes the atom-pairwise dispersion correction
with the Becke-Johnson damping scheme (D3BJ)
Cite in your paper:
S.Grimme, S.Ehrlich, L.Goerigk, J Comput Chem, (2011), 32, 1456–1465 
S.Grimme, J.Antony, S.Ehrlich and H.Krieg, J.Chem.Phys., 132, (2010), 154104 
   

----- Orbital basis set information -----
Your calculation utilizes the basis: def2-SVP
   F. Weigend and R. Ahlrichs, Phys. Chem. Chem. Phys. 7, 3297 (2005).

----- AuxJ basis set information -----
Your calculation utilizes the auxiliary basis: def2/J
   F. Weigend, Phys. Chem. Chem. Phys. 8, 1057 (2006).

================================================================================
                                        WARNINGS
                       Please study these warnings very carefully!
================================================================================


WARNING: Split-RI-J cannot be used together with RIJONX
  ===> : Split-RI-J will be disabled

WARNING: Geometry Optimization
  ===> : Switching off AutoStart
         For restart on a previous wavefunction, please use MOREAD

INFO   : the flag for use of LIBINT has been found!

================================================================================
                                       INPUT FILE
================================================================================
NAME = TEP_Ni.inp
|  1> ! PBE0 def2-SVP RIJDX D3BJ opt freq
|  2> %pal nprocs 10 end
|  3> %maxcore 3036
|  4> 
|  5> %basis
|  6>   newgto Ni "def2-TZVP" end
|  7> end
|  8> 
|  9> *xyzfile 0 1 xtbopt.xyz
| 10> 
| 11>                          ****END OF INPUT****
================================================================================

                       *****************************
                       * Geometry Optimization Run *
                       *****************************

Geometry optimization settings:
Update method            Update   .... BFGS
Choice of coordinates    CoordSys .... Z-matrix Internals
Initial Hessian          InHess   .... Almoef's Model

Convergence Tolerances:
Energy Change            TolE     ....  5.0000e-06 Eh
Max. Gradient            TolMAXG  ....  3.0000e-04 Eh/bohr
RMS Gradient             TolRMSG  ....  1.0000e-04 Eh/bohr
Max. Displacement        TolMAXD  ....  4.0000e-03 bohr
RMS Displacement         TolRMSD  ....  2.0000e-03 bohr
Strict Convergence                ....  False
------------------------------------------------------------------------------
                        ORCA OPTIMIZATION COORDINATE SETUP
------------------------------------------------------------------------------

The optimization will be done in new redundant internal coordinates
Making redundant internal coordinates   ...  (new redundants) done
Evaluating the initial hessian          ...  (Almloef) done
Evaluating the coordinates              ...  done
Calculating the B-matrix                .... done
Calculating the G-matrix                .... done
Diagonalizing the G-matrix              .... done
Small eigenvalue found = 3.300e-03
Small eigenvalue found = 4.868e-03
Small eigenvalue found = 7.044e-03
Small eigenvalue found = 1.141e-02
Small eigenvalue found = 1.257e-02
Small eigenvalue found = 2.217e-02
Small eigenvalue found = 2.476e-02
Small eigenvalue found = 2.969e-02
The first mode is                       ....  312
The number of degrees of freedom        ....  207

    -----------------------------------------------------------------
                    Redundant Internal Coordinates


    -----------------------------------------------------------------
         Definition                    Initial Value    Approx d2E/dq
    -----------------------------------------------------------------
      1. B(C   1,O   0)                  1.1416         1.393885   
      2. B(Ni  2,C   1)                  1.7991         1.406594   
      3. B(C   3,Ni  2)                  1.7985         1.409879   
      4. B(O   4,C   3)                  1.1414         1.394674   
      5. B(P   5,Ni  2)                  2.3621         0.597644   
      6. B(C   6,P   5)                  1.8536         0.382447   
      7. B(C   7,C   6)                  1.5273         0.377339   
      8. B(C   8,C   7)                  1.5273         0.377269   
      9. B(C   9,C   8)                  1.5235         0.382633   
     10. B(C  10,P   5)                  1.9004         0.322014   
     11. B(C  11,C  10)                  1.5311         0.372121   
     12. B(C  12,C  11)                  1.5330         0.369487   
     13. B(C  13,C  12)                  1.5271         0.377540   
     14. B(C  14,C  13)                  1.5275         0.377080   
     15. B(C  15,C  10)                  1.5299         0.373765   
     16. B(C  15,C  14)                  1.5292         0.374711   
     17. B(C  16,C  14)                  1.5260         0.379081   
     18. B(C  17,C  16)                  1.5264         0.378527   
     19. B(C  18,C  17)                  1.5268         0.378044   
     20. B(C  18,C  12)                  1.5266         0.378325   
     21. B(C  19,C  17)                  1.5268         0.378032   
     22. B(C  19,C  10)                  1.5353         0.366380   
     23. B(C  20,P   5)                  1.8992         0.323517   
     24. B(C  21,C  20)                  1.5326         0.370016   
     25. B(C  22,C  21)                  1.5282         0.376097   
     26. B(C  23,C  22)                  1.5258         0.379396   
     27. B(C  24,C  23)                  1.5260         0.379055   
     28. B(C  25,C  24)                  1.5273         0.377231   
     29. B(C  25,C  20)                  1.5323         0.370490   
     30. B(C  26,C  24)                  1.5278         0.376600   
     31. B(C  27,C  26)                  1.5277         0.376785   
     32. B(C  28,C  27)                  1.5264         0.378597   
     33. B(C  28,C  22)                  1.5271         0.377567   
     34. B(C  29,C  27)                  1.5332         0.369271   
     35. B(C  29,C  20)                  1.5275         0.377015   
     36. B(C  30,Ni  2)                  1.8006         1.398902   
     37. B(O  31,C  30)                  1.1410         1.396642   
     38. B(H  32,C   6)                  1.0934         0.355565   
     39. B(H  33,C   6)                  1.0931         0.356021   
     40. B(H  34,C   7)                  1.0948         0.353821   
     41. B(H  35,C   7)                  1.0900         0.360042   
     42. B(H  36,C   8)                  1.0933         0.355778   
     43. B(H  37,C   8)                  1.0929         0.356308   
     44. B(H  38,C   9)                  1.0878         0.362983   
     45. B(H  39,C   9)                  1.0874         0.363580   
     46. B(H  40,C   9)                  1.0877         0.363196   
     47. B(H  41,C  11)                  1.0907         0.359166   
     48. B(H  42,C  11)                  1.0886         0.361902   
     49. B(H  43,C  12)                  1.0964         0.351782   
     50. B(H  44,C  13)                  1.0921         0.357300   
     51. B(H  45,C  13)                  1.0929         0.356263   
     52. B(H  46,C  14)                  1.0961         0.352173   
     53. B(H  47,C  15)                  1.0935         0.355454   
     54. B(H  48,C  15)                  1.0910         0.358792   
     55. B(H  49,C  16)                  1.0922         0.357170   
     56. B(H  50,C  16)                  1.0922         0.357146   
     57. B(H  51,C  17)                  1.0959         0.352431   
     58. B(H  52,C  18)                  1.0922         0.357261   
     59. B(H  53,C  18)                  1.0927         0.356531   
     60. B(H  54,C  19)                  1.0933         0.355792   
     61. B(H  55,C  19)                  1.0954         0.353075   
     62. B(H  56,C  21)                  1.0910         0.358717   
     63. B(H  57,C  21)                  1.0934         0.355622   
     64. B(H  58,C  22)                  1.0961         0.352097   
     65. B(H  59,C  23)                  1.0923         0.357088   
     66. B(H  60,C  23)                  1.0922         0.357158   
     67. B(H  61,C  24)                  1.0957         0.352574   
     68. B(H  62,C  25)                  1.0906         0.359330   
     69. B(H  63,C  25)                  1.0957         0.352669   
     70. B(H  64,C  26)                  1.0922         0.357240   
     71. B(H  65,C  26)                  1.0928         0.356384   
     72. B(H  66,C  27)                  1.0965         0.351552   
     73. B(H  67,C  28)                  1.0921         0.357319   
     74. B(H  68,C  28)                  1.0929         0.356340   
     75. B(H  69,C  29)                  1.0929         0.356267   
     76. B(H  70,C  29)                  1.0903         0.359748   
     77. A(O   0,C   1,Ni  2)          173.9319         0.660515   
     78. A(C   3,Ni  2,C  30)          114.6483         0.755427   
     79. A(P   5,Ni  2,C  30)          103.8973         0.671384   
     80. A(C   1,Ni  2,C   3)          112.5309         0.756255   
     81. A(C   1,Ni  2,C  30)          111.6911         0.755075   
     82. A(C   1,Ni  2,P   5)          107.3606         0.672107   
     83. A(C   3,Ni  2,P   5)          105.8827         0.672415   
     84. L(Ni  2,C   3,O   4,P   5, 1) 182.8018         0.660890   
     85. L(Ni  2,C   3,O   4,P   5, 2) 181.5587         0.660890   
     86. A(Ni  2,P   5,C  10)          113.7065         0.481362   
     87. A(C   6,P   5,C  10)          100.5569         0.402939   
     88. A(C   6,P   5,C  20)          104.1449         0.403270   
     89. A(Ni  2,P   5,C   6)          113.4426         0.496937   
     90. A(Ni  2,P   5,C  20)          112.9452         0.481775   
     91. A(C  10,P   5,C  20)          111.0113         0.391271   
     92. A(P   5,C   6,H  33)          106.0701         0.345011   
     93. A(H  32,C   6,H  33)          108.0913         0.289743   
     94. A(P   5,C   6,H  32)          109.4102         0.344937   
     95. A(P   5,C   6,C   7)          114.6096         0.388926   
     96. A(C   7,C   6,H  33)          107.3162         0.324246   
     97. A(C   7,C   6,H  32)          111.0174         0.324178   
     98. A(H  34,C   7,H  35)          107.2928         0.290030   
     99. A(C   8,C   7,H  34)          109.1545         0.323906   
    100. A(C   6,C   7,H  35)          111.1149         0.324845   
    101. A(C   6,C   7,C   8)          111.3895         0.364588   
    102. A(C   8,C   7,H  35)          108.9552         0.324835   
    103. A(C   6,C   7,H  34)          108.8295         0.323916   
    104. A(C   9,C   8,H  36)          109.4480         0.324953   
    105. A(C   7,C   8,H  36)          109.4226         0.324200   
    106. A(C   9,C   8,H  37)          109.3224         0.325032   
    107. A(C   7,C   8,H  37)          109.4504         0.324279   
    108. A(C   7,C   8,C   9)          111.4973         0.365458   
    109. A(H  36,C   8,H  37)          107.6169         0.289807   
    110. A(C   8,C   9,H  38)          110.5561         0.326026   
    111. A(H  39,C   9,H  40)          108.4399         0.291672   
    112. A(C   8,C   9,H  40)          110.4013         0.326057   
    113. A(H  38,C   9,H  40)          108.2729         0.291596   
    114. A(H  38,C   9,H  39)          108.4342         0.291645   
    115. A(C   8,C   9,H  39)          110.6602         0.326114   
    116. A(C  11,C  10,C  19)          108.5996         0.361906   
    117. A(P   5,C  10,C  11)          115.6470         0.376567   
    118. A(P   5,C  10,C  19)          105.0611         0.375557   
    119. A(C  11,C  10,C  15)          109.4086         0.363141   
    120. A(P   5,C  10,C  15)          109.9024         0.376854   
    121. A(C  15,C  10,C  19)          107.8864         0.362178   
    122. A(C  10,C  11,C  12)          109.5738         0.362428   
    123. A(C  12,C  11,H  41)          108.5370         0.323596   
    124. A(C  10,C  11,H  42)          111.0800         0.324377   
    125. A(C  10,C  11,H  41)          110.8690         0.323973   
    126. A(C  12,C  11,H  42)          108.8369         0.323999   
    127. A(H  41,C  11,H  42)          107.8753         0.290949   
    128. A(C  11,C  12,C  18)          109.8127         0.363453   
    129. A(C  18,C  12,H  43)          109.4693         0.323748   
    130. A(C  13,C  12,C  18)          109.5153         0.364795   
    131. A(C  13,C  12,H  43)          109.4210         0.323637   
    132. A(C  11,C  12,H  43)          108.6050         0.322495   
    133. A(C  11,C  12,C  13)          109.9998         0.363324   
    134. A(C  14,C  13,H  45)          110.0345         0.324246   
    135. A(H  44,C  13,H  45)          107.7641         0.289995   
    136. A(C  12,C  13,H  45)          109.9932         0.324311   
    137. A(C  14,C  13,H  44)          109.9882         0.324400   
    138. A(C  12,C  13,H  44)          109.8756         0.324465   
    139. A(C  12,C  13,C  14)          109.1718         0.364590   
    140. A(C  16,C  14,H  46)          109.5306         0.323913   
    141. A(C  15,C  14,H  46)          108.9564         0.323297   
    142. A(C  13,C  14,H  46)          109.5664         0.323632   
    143. A(C  15,C  14,C  16)          110.0067         0.364451   
    144. A(C  13,C  14,C  16)          109.6557         0.364844   
    145. A(C  13,C  14,C  15)          109.1084         0.364121   
    146. A(C  14,C  15,H  48)          108.4458         0.324287   
    147. A(C  10,C  15,H  48)          110.4848         0.324152   
    148. A(C  14,C  15,H  47)          109.8832         0.323789   
    149. A(C  10,C  15,H  47)          109.3625         0.323655   
    150. A(H  47,C  15,H  48)          108.2455         0.290081   
    151. A(C  10,C  15,C  14)          110.3843         0.363572   
    152. A(H  49,C  16,H  50)          107.9033         0.290091   
    153. A(C  14,C  16,H  50)          109.9262         0.324660   
    154. A(C  17,C  16,H  50)          109.9091         0.324582   
    155. A(C  17,C  16,H  49)          110.1317         0.324585   
    156. A(C  14,C  16,H  49)          110.0194         0.324663   
    157. A(C  14,C  16,C  17)          108.9425         0.365083   
    158. A(C  16,C  17,C  19)          109.2426         0.364910   
    159. A(C  16,C  17,H  51)          109.5864         0.323874   
    160. A(C  19,C  17,H  51)          109.0443         0.323805   
    161. A(C  16,C  17,C  18)          109.7522         0.364912   
    162. A(C  18,C  17,H  51)          109.6148         0.323806   
    163. A(C  18,C  17,C  19)          109.5842         0.364831   
    164. A(C  17,C  18,H  53)          110.0090         0.324422   
    165. A(C  17,C  18,H  52)          110.0161         0.324531   
    166. A(C  12,C  18,H  52)          109.9798         0.324570   
    167. A(C  12,C  18,C  17)          109.0034         0.364879   
    168. A(H  52,C  18,H  53)          107.8060         0.290024   
    169. A(C  12,C  18,H  53)          110.0168         0.324461   
    170. A(H  54,C  19,H  55)          107.8336         0.289395   
    171. A(C  17,C  19,H  55)          109.1443         0.323902   
    172. A(C  10,C  19,H  55)          109.1294         0.322243   
    173. A(C  17,C  19,H  54)          109.4017         0.324310   
    174. A(C  10,C  19,H  54)          110.4826         0.322648   
    175. A(C  10,C  19,C  17)          110.7876         0.362881   
    176. A(C  25,C  20,C  29)          109.4154         0.363406   
    177. A(C  21,C  20,C  29)          108.3368         0.363326   
    178. A(P   5,C  20,C  29)          116.1265         0.377723   
    179. A(C  21,C  20,C  25)          108.2567         0.362244   
    180. A(P   5,C  20,C  25)          107.6479         0.376584   
    181. A(P   5,C  20,C  21)          106.7984         0.376501   
    182. A(C  22,C  21,H  57)          109.8653         0.324011   
    183. A(C  20,C  21,H  57)          109.3983         0.323145   
    184. A(C  22,C  21,H  56)          108.2769         0.324472   
    185. A(C  20,C  21,H  56)          110.0698         0.323605   
    186. A(H  56,C  21,H  57)          108.5248         0.290093   
    187. A(C  20,C  21,C  22)          110.6691         0.363175   
    188. A(C  23,C  22,C  28)          109.7940         0.364976   
    189. A(C  21,C  22,C  28)          108.8476         0.364431   
    190. A(C  21,C  22,C  23)          110.0685         0.364733   
    191. A(C  28,C  22,H  58)          109.5819         0.323689   
    192. A(C  23,C  22,H  58)          109.5571         0.323946   
    193. A(C  21,C  22,H  58)          108.9730         0.323482   
    194. A(C  22,C  23,C  24)          108.9183         0.365222   
    195. A(H  59,C  23,H  60)          107.9015         0.290082   
    196. A(C  24,C  23,H  60)          109.8880         0.324658   
    197. A(C  22,C  23,H  60)          109.9230         0.324706   
    198. A(C  24,C  23,H  59)          110.1768         0.324647   
    199. A(C  22,C  23,H  59)          110.0249         0.324695   
    200. A(C  25,C  24,C  26)          109.4439         0.364459   
    201. A(C  23,C  24,C  26)          109.7303         0.364760   
    202. A(C  23,C  24,C  25)          109.4748         0.364865   
    203. A(C  26,C  24,H  61)          109.5244         0.323624   
    204. A(C  25,C  24,H  61)          109.0672         0.323713   
    205. A(C  23,C  24,H  61)          109.5845         0.323970   
    206. A(H  62,C  25,H  63)          107.6951         0.289792   
    207. A(C  20,C  25,C  24)          110.4314         0.363441   
    208. A(C  24,C  25,H  63)          109.6614         0.323728   
    209. A(C  20,C  25,H  63)          109.0816         0.322772   
    210. A(C  24,C  25,H  62)          109.3333         0.324724   
    211. A(C  20,C  25,H  62)          110.5896         0.323764   
    212. A(C  24,C  26,C  27)          109.2410         0.364386   
    213. A(H  64,C  26,H  65)          107.7682         0.290003   
    214. A(C  27,C  26,H  65)          110.0399         0.324222   
    215. A(C  24,C  26,H  65)          109.9341         0.324196   
    216. A(C  27,C  26,H  64)          109.8518         0.324350   
    217. A(C  24,C  26,H  64)          109.9909         0.324324   
    218. A(C  28,C  27,C  29)          110.2776         0.363461   
    219. A(C  26,C  27,C  29)          109.5394         0.363163   
    220. A(C  26,C  27,C  28)          109.3994         0.364715   
    221. A(C  29,C  27,H  66)          108.6590         0.322430   
    222. A(C  28,C  27,H  66)          109.4774         0.323751   
    223. A(C  26,C  27,H  66)          109.4711         0.323496   
    224. A(C  22,C  28,C  27)          108.9571         0.364845   
    225. A(H  67,C  28,H  68)          107.7998         0.290007   
    226. A(C  27,C  28,H  68)          110.0559         0.324471   
    227. A(C  22,C  28,H  68)          110.0292         0.324326   
    228. A(C  27,C  28,H  67)          109.8809         0.324617   
    229. A(C  22,C  28,H  67)          110.1091         0.324472   
    230. A(C  20,C  29,C  27)          109.6319         0.363201   
    231. A(H  69,C  29,H  70)          108.4923         0.290307   
    232. A(C  27,C  29,H  70)          108.0934         0.323651   
    233. A(C  20,C  29,H  70)          110.6651         0.324755   
    234. A(C  27,C  29,H  69)          109.4334         0.323135   
    235. A(C  20,C  29,H  69)          110.4760         0.324237   
    236. L(Ni  2,C  30,O  31,P   5, 2) 179.2632         0.660061   
    237. L(Ni  2,C  30,O  31,P   5, 1) 179.8640         0.660061   
    238. D(C  30,Ni  2,C   1,O   0)    -52.8476         0.009085   
    239. D(C   3,Ni  2,C   1,O   0)     77.7642         0.009085   
    240. D(P   5,Ni  2,C   1,O   0)   -166.1245         0.009085   
    241. D(C  20,P   5,Ni  2,C   1)    -45.1379         0.001987   
    242. D(C  20,P   5,Ni  2,C  30)   -163.5801         0.001987   
    243. D(C   6,P   5,Ni  2,C   3)   -166.4990         0.001987   
    244. D(C  10,P   5,Ni  2,C  30)     68.7482         0.001987   
    245. D(C   6,P   5,Ni  2,C   1)     73.0795         0.001987   
    246. D(C  10,P   5,Ni  2,C   1)   -172.8096         0.001987   
    247. D(C  10,P   5,Ni  2,C   3)    -52.3881         0.001987   
    248. D(C  20,P   5,Ni  2,C   3)     75.2836         0.001987   
    249. D(C   6,P   5,Ni  2,C  30)    -45.3627         0.001987   
    250. D(C   7,C   6,P   5,C  20)     94.1957         0.003631   
    251. D(C   7,C   6,P   5,Ni  2)    -28.9994         0.003631   
    252. D(H  33,C   6,P   5,C  10)    -32.5682         0.003631   
    253. D(H  33,C   6,P   5,Ni  2)     89.2065         0.003631   
    254. D(H  32,C   6,P   5,Ni  2)   -154.4252         0.003631   
    255. D(H  32,C   6,P   5,C  20)    -31.2302         0.003631   
    256. D(H  32,C   6,P   5,C  10)     83.8000         0.003631   
    257. D(H  33,C   6,P   5,C  20)   -147.5984         0.003631   
    258. D(C   7,C   6,P   5,C  10)   -150.7741         0.003631   
    259. D(H  35,C   7,C   6,H  33)    173.4382         0.011357   
    260. D(H  34,C   7,C   6,H  33)    -68.6344         0.011357   
    261. D(H  34,C   7,C   6,H  32)    173.4451         0.011357   
    262. D(C   8,C   7,C   6,H  33)     51.7552         0.011357   
    263. D(H  35,C   7,C   6,H  32)     55.5178         0.011357   
    264. D(H  35,C   7,C   6,P   5)    -69.0630         0.011357   
    265. D(C   8,C   7,C   6,P   5)    169.2539         0.011357   
    266. D(H  34,C   7,C   6,P   5)     48.8643         0.011357   
    267. D(C   8,C   7,C   6,H  32)    -66.1653         0.011357   
    268. D(C   9,C   8,C   7,H  35)     57.4417         0.011353   
    269. D(C   9,C   8,C   7,C   6)   -179.6296         0.011353   
    270. D(C   9,C   8,C   7,H  34)    -59.4314         0.011353   
    271. D(H  36,C   8,C   7,H  34)    179.3495         0.011353   
    272. D(H  37,C   8,C   7,H  34)     61.6486         0.011353   
    273. D(H  37,C   8,C   7,C   6)    -58.5496         0.011353   
    274. D(H  36,C   8,C   7,C   6)     59.1513         0.011353   
    275. D(H  37,C   8,C   7,H  35)    178.5217         0.011353   
    276. D(H  36,C   8,C   7,H  35)    -63.7774         0.011353   
    277. D(H  40,C   9,C   8,H  37)    -61.5344         0.011660   
    278. D(H  40,C   9,C   8,H  36)   -179.1755         0.011660   
    279. D(H  40,C   9,C   8,C   7)     59.6202         0.011660   
    280. D(H  39,C   9,C   8,H  36)    -59.1149         0.011660   
    281. D(H  39,C   9,C   8,H  37)     58.5262         0.011660   
    282. D(H  38,C   9,C   8,C   7)    -60.1647         0.011660   
    283. D(H  39,C   9,C   8,C   7)    179.6808         0.011660   
    284. D(H  38,C   9,C   8,H  37)    178.6807         0.011660   
    285. D(H  38,C   9,C   8,H  36)     61.0396         0.011660   
    286. D(C  15,C  10,P   5,C  20)    -55.0410         0.002999   
    287. D(C  11,C  10,P   5,C  20)     69.4212         0.002999   
    288. D(C  15,C  10,P   5,Ni  2)     73.6237         0.002999   
    289. D(C  11,C  10,P   5,Ni  2)   -161.9140         0.002999   
    290. D(C  19,C  10,P   5,C   6)     79.3832         0.002999   
    291. D(C  11,C  10,P   5,C   6)    -40.3259         0.002999   
    292. D(C  19,C  10,P   5,C  20)   -170.8697         0.002999   
    293. D(C  19,C  10,P   5,Ni  2)    -42.2049         0.002999   
    294. D(C  15,C  10,P   5,C   6)   -164.7881         0.002999   
    295. D(H  41,C  11,C  10,C  15)   -178.1282         0.011062   
    296. D(H  41,C  11,C  10,P   5)     57.1538         0.011062   
    297. D(C  12,C  11,C  10,C  19)     59.1771         0.011062   
    298. D(C  12,C  11,C  10,P   5)    176.9333         0.011062   
    299. D(H  41,C  11,C  10,C  19)    -60.6024         0.011062   
    300. D(C  12,C  11,C  10,C  15)    -58.3487         0.011062   
    301. D(H  42,C  11,C  10,C  19)    179.4630         0.011062   
    302. D(H  42,C  11,C  10,C  15)     61.9371         0.011062   
    303. D(H  42,C  11,C  10,P   5)    -62.7808         0.011062   
    304. D(H  43,C  12,C  11,H  42)     57.6787         0.010915   
    305. D(H  43,C  12,C  11,H  41)    -59.4798         0.010915   
    306. D(C  18,C  12,C  11,H  42)    177.3542         0.010915   
    307. D(C  18,C  12,C  11,H  41)     60.1957         0.010915   
    308. D(C  13,C  12,C  11,H  41)   -179.2076         0.010915   
    309. D(C  13,C  12,C  11,H  42)    -62.0491         0.010915   
    310. D(C  13,C  12,C  11,C  10)     59.5945         0.010915   
    311. D(C  18,C  12,C  11,C  10)    -61.0022         0.010915   
    312. D(H  43,C  12,C  11,C  10)    179.3223         0.010915   
    313. D(H  45,C  13,C  12,H  43)    -58.9040         0.011368   
    314. D(H  45,C  13,C  12,C  18)   -178.8978         0.011368   
    315. D(H  44,C  13,C  12,H  43)     59.5701         0.011368   
    316. D(H  44,C  13,C  12,C  18)    -60.4237         0.011368   
    317. D(H  44,C  13,C  12,C  11)    178.8005         0.011368   
    318. D(C  14,C  13,C  12,H  43)   -179.7319         0.011368   
    319. D(C  14,C  13,C  12,C  18)     60.2743         0.011368   
    320. D(H  45,C  13,C  12,C  11)     60.3265         0.011368   
    321. D(C  14,C  13,C  12,C  11)    -60.5015         0.011368   
    322. D(H  46,C  14,C  13,H  45)     58.6617         0.011342   
    323. D(H  46,C  14,C  13,H  44)    -59.9065         0.011342   
    324. D(H  46,C  14,C  13,C  12)    179.4644         0.011342   
    325. D(C  16,C  14,C  13,H  45)    178.9068         0.011342   
    326. D(C  16,C  14,C  13,H  44)     60.3387         0.011342   
    327. D(C  16,C  14,C  13,C  12)    -60.2905         0.011342   
    328. D(C  15,C  14,C  13,H  44)   -179.1155         0.011342   
    329. D(C  15,C  14,C  13,C  12)     60.2554         0.011342   
    330. D(C  15,C  14,C  13,H  45)    -60.5473         0.011342   
    331. D(H  48,C  15,C  14,C  16)   -178.6113         0.011208   
    332. D(H  48,C  15,C  14,C  13)     61.0583         0.011208   
    333. D(H  47,C  15,C  14,H  46)     59.6091         0.011208   
    334. D(H  47,C  15,C  14,C  13)    179.1964         0.011208   
    335. D(C  10,C  15,C  14,H  46)   -179.6935         0.011208   
    336. D(C  10,C  15,C  14,C  16)     60.2241         0.011208   
    337. D(C  10,C  15,C  14,C  13)    -60.1063         0.011208   
    338. D(H  48,C  15,C  10,C  19)   -178.7745         0.011154   
    339. D(H  48,C  15,C  10,C  11)    -60.8018         0.011154   
    340. D(H  48,C  15,C  10,P   5)     67.1944         0.011154   
    341. D(H  47,C  15,C  10,C  19)     62.1773         0.011154   
    342. D(H  47,C  15,C  10,C  11)   -179.8500         0.011154   
    343. D(H  47,C  15,C  14,C  16)    -60.4732         0.011208   
    344. D(H  47,C  15,C  10,P   5)    -51.8537         0.011154   
    345. D(C  14,C  15,C  10,C  19)    -58.8308         0.011154   
    346. D(C  14,C  15,C  10,C  11)     59.1418         0.011154   
    347. D(H  48,C  15,C  14,H  46)    -58.5290         0.011208   
    348. D(C  14,C  15,C  10,P   5)   -172.8619         0.011154   
    349. D(H  50,C  16,C  14,H  46)    -59.0490         0.011456   
    350. D(H  50,C  16,C  14,C  15)     60.6849         0.011456   
    351. D(H  49,C  16,C  14,H  46)     59.6428         0.011456   
    352. D(H  49,C  16,C  14,C  15)    179.3767         0.011456   
    353. D(H  50,C  16,C  14,C  13)   -179.3160         0.011456   
    354. D(H  49,C  16,C  14,C  13)    -60.6242         0.011456   
    355. D(C  17,C  16,C  14,H  46)   -179.5377         0.011456   
    356. D(C  17,C  16,C  14,C  15)    -59.8039         0.011456   
    357. D(C  17,C  16,C  14,C  13)     60.1953         0.011456   
    358. D(H  51,C  17,C  16,C  14)    179.1988         0.011424   
    359. D(C  19,C  17,C  16,H  50)    -60.7094         0.011424   
    360. D(C  19,C  17,C  16,H  49)   -179.4596         0.011424   
    361. D(C  19,C  17,C  16,C  14)     59.7899         0.011424   
    362. D(C  18,C  17,C  16,H  49)     60.3705         0.011424   
    363. D(C  18,C  17,C  16,C  14)    -60.3800         0.011424   
    364. D(C  18,C  17,C  16,H  50)    179.1207         0.011424   
    365. D(H  51,C  17,C  16,H  50)     58.6995         0.011424   
    366. D(H  51,C  17,C  16,H  49)    -60.0507         0.011424   
    367. D(H  53,C  18,C  17,H  51)    -58.3987         0.011397   
    368. D(H  53,C  18,C  17,C  19)     61.2354         0.011397   
    369. D(H  53,C  18,C  17,C  16)   -178.8027         0.011397   
    370. D(H  52,C  18,C  17,H  51)     60.2224         0.011397   
    371. D(H  52,C  18,C  17,C  16)    -60.1816         0.011397   
    372. D(C  12,C  18,C  17,C  19)    -59.4746         0.011397   
    373. D(H  53,C  18,C  12,H  43)     59.0358         0.011413   
    374. D(H  53,C  18,C  12,C  13)    179.0001         0.011413   
    375. D(C  12,C  18,C  17,C  16)     60.4873         0.011397   
    376. D(H  53,C  18,C  12,C  11)    -60.1107         0.011413   
    377. D(H  52,C  18,C  12,H  43)    -59.5678         0.011413   
    378. D(H  52,C  18,C  12,C  13)     60.3965         0.011413   
    379. D(H  52,C  18,C  17,C  19)    179.8565         0.011397   
    380. D(C  12,C  18,C  17,H  51)   -179.1087         0.011397   
    381. D(H  52,C  18,C  12,C  11)   -178.7143         0.011413   
    382. D(C  17,C  18,C  12,H  43)    179.7411         0.011413   
    383. D(C  17,C  18,C  12,C  13)    -60.2947         0.011413   
    384. D(C  17,C  18,C  12,C  11)     60.5946         0.011413   
    385. D(H  55,C  19,C  17,H  51)    -60.3589         0.011396   
    386. D(H  55,C  19,C  17,C  18)    179.6578         0.011396   
    387. D(H  55,C  19,C  17,C  16)     59.3848         0.011396   
    388. D(H  54,C  19,C  17,H  51)     57.4136         0.011396   
    389. D(H  54,C  19,C  17,C  18)    -62.5698         0.011396   
    390. D(H  54,C  19,C  17,C  16)    177.1572         0.011396   
    391. D(C  10,C  19,C  17,H  51)    179.4541         0.011396   
    392. D(C  10,C  19,C  17,C  18)     59.4708         0.011396   
    393. D(C  10,C  19,C  17,C  16)    -60.8022         0.011396   
    394. D(H  55,C  19,C  10,C  15)    -60.6508         0.010744   
    395. D(H  55,C  19,C  10,C  11)   -179.1424         0.010744   
    396. D(H  55,C  19,C  10,P   5)     56.5607         0.010744   
    397. D(H  54,C  19,C  10,C  15)   -179.0488         0.010744   
    398. D(H  54,C  19,C  10,C  11)     62.4596         0.010744   
    399. D(H  54,C  19,C  10,P   5)    -61.8373         0.010744   
    400. D(C  17,C  19,C  10,C  15)     59.5451         0.010744   
    401. D(C  17,C  19,C  10,C  11)    -58.9466         0.010744   
    402. D(C  17,C  19,C  10,P   5)    176.7566         0.010744   
    403. D(C  29,C  20,P   5,C  10)    -37.0861         0.003013   
    404. D(C  29,C  20,P   5,C   6)     70.3231         0.003013   
    405. D(C  29,C  20,P   5,Ni  2)   -166.1581         0.003013   
    406. D(C  25,C  20,P   5,C  10)     85.9089         0.003013   
    407. D(C  25,C  20,P   5,C   6)   -166.6819         0.003013   
    408. D(C  25,C  20,P   5,Ni  2)    -43.1631         0.003013   
    409. D(C  21,C  20,P   5,C  10)   -158.0228         0.003013   
    410. D(C  21,C  20,P   5,C   6)    -50.6136         0.003013   
    411. D(C  21,C  20,P   5,Ni  2)     72.9052         0.003013   
    412. D(H  57,C  21,C  20,C  25)     62.8928         0.010945   
    413. D(H  57,C  21,C  20,P   5)    -52.7687         0.010945   
    414. D(H  56,C  21,C  20,C  29)    -59.3857         0.010945   
    415. D(H  56,C  21,C  20,C  25)   -177.9465         0.010945   
    416. D(H  56,C  21,C  20,P   5)     66.3921         0.010945   
    417. D(C  22,C  21,C  20,C  29)     60.2631         0.010945   
    418. D(C  22,C  21,C  20,C  25)    -58.2976         0.010945   
    419. D(H  57,C  21,C  20,C  29)   -178.5465         0.010945   
    420. D(C  22,C  21,C  20,P   5)   -173.9591         0.010945   
    421. D(H  58,C  22,C  21,H  57)     58.6590         0.011286   
    422. D(H  58,C  22,C  21,H  56)    -59.7066         0.011286   
    423. D(H  58,C  22,C  21,C  20)    179.5727         0.011286   
    424. D(C  28,C  22,C  21,H  57)    178.1209         0.011286   
    425. D(C  28,C  22,C  21,H  56)     59.7554         0.011286   
    426. D(C  28,C  22,C  21,C  20)    -60.9653         0.011286   
    427. D(C  23,C  22,C  21,H  57)    -61.5038         0.011286   
    428. D(C  23,C  22,C  21,H  56)   -179.8693         0.011286   
    429. D(C  23,C  22,C  21,C  20)     59.4100         0.011286   
    430. D(H  60,C  23,C  22,H  58)    -58.8104         0.011474   
    431. D(H  60,C  23,C  22,C  28)   -179.1988         0.011474   
    432. D(H  60,C  23,C  22,C  21)     60.9985         0.011474   
    433. D(H  59,C  23,C  22,H  58)     59.8805         0.011474   
    434. D(H  59,C  23,C  22,C  28)    -60.5079         0.011474   
    435. D(H  59,C  23,C  22,C  21)    179.6894         0.011474   
    436. D(C  24,C  23,C  22,H  58)   -179.2563         0.011474   
    437. D(C  24,C  23,C  22,C  28)     60.3553         0.011474   
    438. D(C  24,C  23,C  22,C  21)    -59.4474         0.011474   
    439. D(H  61,C  24,C  23,H  60)     59.2509         0.011455   
    440. D(H  61,C  24,C  23,H  59)    -59.5118         0.011455   
    441. D(H  61,C  24,C  23,C  22)    179.7182         0.011455   
    442. D(C  26,C  24,C  23,H  60)    179.5461         0.011455   
    443. D(C  26,C  24,C  23,H  59)     60.7834         0.011455   
    444. D(C  26,C  24,C  23,C  22)    -59.9866         0.011455   
    445. D(C  25,C  24,C  23,H  60)    -60.3260         0.011455   
    446. D(C  25,C  24,C  23,H  59)   -179.0886         0.011455   
    447. D(C  25,C  24,C  23,C  22)     60.1414         0.011455   
    448. D(H  63,C  25,C  24,H  61)    -60.6897         0.011350   
    449. D(H  63,C  25,C  24,C  26)    179.5077         0.011350   
    450. D(H  63,C  25,C  24,C  23)     59.2047         0.011350   
    451. D(H  62,C  25,C  24,H  61)     57.1769         0.011350   
    452. D(H  62,C  25,C  24,C  26)    -62.6257         0.011350   
    453. D(C  20,C  25,C  24,H  61)    179.0746         0.011350   
    454. D(C  20,C  25,C  24,C  26)     59.2720         0.011350   
    455. D(C  20,C  25,C  24,C  23)    -61.0309         0.011350   
    456. D(H  63,C  25,C  20,C  29)   -179.2410         0.010971   
    457. D(H  63,C  25,C  20,C  21)    -61.3675         0.010971   
    458. D(H  63,C  25,C  20,P   5)     53.7389         0.010971   
    459. D(H  62,C  25,C  24,C  23)    177.0713         0.011350   
    460. D(H  62,C  25,C  20,C  29)     62.4959         0.010971   
    461. D(H  62,C  25,C  20,C  21)   -179.6306         0.010971   
    462. D(H  62,C  25,C  20,P   5)    -64.5242         0.010971   
    463. D(C  24,C  25,C  20,C  29)    -58.6580         0.010971   
    464. D(C  24,C  25,C  20,C  21)     59.2155         0.010971   
    465. D(C  24,C  25,C  20,P   5)    174.3219         0.010971   
    466. D(H  65,C  26,C  24,H  61)    -58.6633         0.011315   
    467. D(H  65,C  26,C  24,C  25)     60.8582         0.011315   
    468. D(H  65,C  26,C  24,C  23)   -178.9951         0.011315   
    469. D(H  64,C  26,C  24,H  61)     59.8501         0.011315   
    470. D(H  64,C  26,C  24,C  25)    179.3716         0.011315   
    471. D(H  64,C  26,C  24,C  23)    -60.4816         0.011315   
    472. D(C  27,C  26,C  24,H  61)   -179.5048         0.011315   
    473. D(C  27,C  26,C  24,C  25)    -59.9833         0.011315   
    474. D(C  27,C  26,C  24,C  23)     60.1635         0.011315   
    475. D(H  66,C  27,C  26,H  65)     58.9773         0.011325   
    476. D(H  66,C  27,C  26,H  64)    -59.5157         0.011325   
    477. D(H  66,C  27,C  26,C  24)    179.7543         0.011325   
    478. D(C  29,C  27,C  26,H  65)    -60.0713         0.011325   
    479. D(C  29,C  27,C  26,H  64)   -178.5643         0.011325   
    480. D(C  29,C  27,C  26,C  24)     60.7057         0.011325   
    481. D(C  28,C  27,C  26,H  65)    178.9409         0.011325   
    482. D(C  28,C  27,C  26,H  64)     60.4479         0.011325   
    483. D(C  28,C  27,C  26,C  24)    -60.2821         0.011325   
    484. D(H  68,C  28,C  22,C  23)    178.5591         0.011370   
    485. D(H  68,C  28,C  22,C  21)    -60.8964         0.011370   
    486. D(H  67,C  28,C  22,H  58)    -60.4974         0.011370   
    487. D(H  67,C  28,C  22,C  23)     59.8760         0.011370   
    488. D(H  67,C  28,C  22,C  21)   -179.5794         0.011370   
    489. D(C  27,C  28,C  22,H  58)    178.9271         0.011370   
    490. D(C  27,C  28,C  22,C  23)    -60.6995         0.011370   
    491. D(H  68,C  28,C  22,H  58)     58.1857         0.011370   
    492. D(C  27,C  28,C  22,C  21)     59.8451         0.011370   
    493. D(H  68,C  28,C  27,H  66)    -58.8814         0.011428   
    494. D(H  68,C  28,C  27,C  29)     60.6202         0.011428   
    495. D(H  68,C  28,C  27,C  26)   -178.8411         0.011428   
    496. D(H  67,C  28,C  27,H  66)     59.6778         0.011428   
    497. D(H  67,C  28,C  27,C  29)    179.1795         0.011428   
    498. D(H  67,C  28,C  27,C  26)    -60.2819         0.011428   
    499. D(C  22,C  28,C  27,H  66)   -179.6065         0.011428   
    500. D(C  22,C  28,C  27,C  29)    -60.1049         0.011428   
    501. D(C  22,C  28,C  27,C  26)     60.4337         0.011428   
    502. D(H  70,C  29,C  27,H  66)    -59.1767         0.010903   
    503. D(H  70,C  29,C  27,C  28)   -179.1733         0.010903   
    504. D(H  70,C  29,C  27,C  26)     60.3721         0.010903   
    505. D(H  69,C  29,C  27,C  28)    -61.1970         0.010903   
    506. D(H  69,C  29,C  27,C  26)    178.3484         0.010903   
    507. D(C  20,C  29,C  27,H  66)   -179.8887         0.010903   
    508. D(C  20,C  29,C  27,C  28)     60.1147         0.010903   
    509. D(C  20,C  29,C  27,C  26)    -60.3399         0.010903   
    510. D(H  70,C  29,C  20,C  25)    -60.3060         0.011338   
    511. D(H  70,C  29,C  20,C  21)   -178.1294         0.011338   
    512. D(H  70,C  29,C  20,P   5)     61.7601         0.011338   
    513. D(H  69,C  29,C  20,C  25)    179.5160         0.011338   
    514. D(H  69,C  29,C  20,C  21)     61.6926         0.011338   
    515. D(H  69,C  29,C  27,H  66)     58.7996         0.010903   
    516. D(H  69,C  29,C  20,P   5)    -58.4180         0.011338   
    517. D(C  27,C  29,C  20,C  25)     58.8343         0.011338   
    518. D(C  27,C  29,C  20,C  21)    -58.9890         0.011338   
    519. D(C  27,C  29,C  20,P   5)   -179.0996         0.011338   
    -----------------------------------------------------------------

Number of atoms                         .... 71
Number of degrees of freedom            .... 519

         *************************************************************
         *                GEOMETRY OPTIMIZATION CYCLE   1            *
         *************************************************************
---------------------------------
CARTESIAN COORDINATES (ANGSTROEM)
---------------------------------
  O     -4.237492   -0.887465   -0.474530
  C     -3.120245   -0.911758   -0.241385
  Ni    -1.378609   -1.138166    0.148752
  C     -0.441110   -1.793805   -1.238948
  O      0.109331   -2.247999   -2.129767
  P     -0.471723    0.997792    0.590037
  C     -1.005548    1.703433    2.218832
  C     -2.379424    1.236049    2.694831
  C     -2.634358    1.642093    4.144951
  C     -4.000621    1.169152    4.625198
  C      1.415532    0.995317    0.813404
  C      2.001801    2.225258    1.511747
  C      3.514022    2.044473    1.686616
  C      4.179853    1.866835    0.323814
  C      3.607176    0.624750   -0.356182
  C      2.100076    0.805488   -0.541527
  C      3.883646   -0.604945    0.504133
  C      3.218467   -0.417242    1.865106
  C      3.791805    0.819033    2.553518
  C      1.714227   -0.243130    1.670234
  C     -1.005444    2.305476   -0.679578
  C     -2.477542    2.623585   -0.395651
  C     -3.042605    3.560017   -1.462936
  C     -2.930051    2.912788   -2.840058
  C     -1.460772    2.620348   -3.130714
  C     -0.911513    1.668512   -2.069998
  C     -0.661569    3.922259   -3.108602
  C     -0.785550    4.565710   -1.728610
  C     -2.253698    4.867362   -1.439925
  C     -0.219660    3.615306   -0.666978
  C     -1.153841   -2.031489    1.695876
  O     -1.019444   -2.592178    2.680519
  H     -0.955809    2.794904    2.175820
  H     -0.272380    1.358884    2.952739
  H     -2.429549    0.145471    2.613047
  H     -3.172122    1.644754    2.068106
  H     -2.573820    2.730076    4.233860
  H     -1.858239    1.214272    4.784482
  H     -4.790727    1.602441    4.015801
  H     -4.165532    1.460297    5.659818
  H     -4.072449    0.086004    4.556965
  H      1.553029    2.363921    2.496135
  H      1.820536    3.128452    0.931640
  H      3.918786    2.937931    2.176418
  H      5.259438    1.759531    0.449190
  H      4.002256    2.748844   -0.296657
  H      4.073993    0.496460   -1.339528
  H      1.678934   -0.071552   -1.040786
  H      1.932481    1.674793   -1.179086
  H      4.960374   -0.740586    0.627475
  H      3.486500   -1.497689    0.015998
  H      3.398493   -1.301371    2.487051
  H      4.867783    0.700816    2.698773
  H      3.333679    0.945323    3.537484
  H      1.228886   -0.159166    2.646271
  H      1.311590   -1.130883    1.170637
  H     -2.574469    3.112742    0.574769
  H     -3.052558    1.693817   -0.374994
  H     -4.096031    3.762613   -1.237718
  H     -3.339141    3.580387   -3.601665
  H     -3.505286    1.984595   -2.863198
  H     -1.367793    2.150258   -4.116126
  H      0.123152    1.419984   -2.308898
  H     -1.487932    0.736739   -2.076816
  H     -1.039997    4.605695   -3.871847
  H      0.388236    3.718877   -3.334011
  H     -0.209551    5.498536   -1.707185
  H     -2.646078    5.555961   -2.191308
  H     -2.352673    5.347116   -0.463003
  H     -0.282271    4.089265    0.315825
  H      0.830631    3.436150   -0.898219

----------------------------
CARTESIAN COORDINATES (A.U.)
----------------------------
  NO LB      ZA    FRAG     MASS         X           Y           Z
   0 O     8.0000    0    15.999   -8.007698   -1.677066   -0.896732
   1 C     6.0000    0    12.011   -5.896409   -1.722973   -0.456151
   2 Ni   28.0000    0    58.700   -2.605193   -2.150822    0.281101
   3 C     6.0000    0    12.011   -0.833577   -3.389800   -2.341273
   4 O     8.0000    0    15.999    0.206605   -4.248102   -4.024675
   5 P    15.0000    0    30.974   -0.891427    1.885554    1.115007
   6 C     6.0000    0    12.011   -1.900211    3.219022    4.192985
   7 C     6.0000    0    12.011   -4.496459    2.335794    5.092493
   8 C     6.0000    0    12.011   -4.978214    3.103106    7.832822
   9 C     6.0000    0    12.011   -7.560078    2.209377    8.740358
  10 C     6.0000    0    12.011    2.674968    1.880877    1.537111
  11 C     6.0000    0    12.011    3.782856    4.205129    2.856788
  12 C     6.0000    0    12.011    6.640539    3.863493    3.187242
  13 C     6.0000    0    12.011    7.898777    3.527806    0.611921
  14 C     6.0000    0    12.011    6.816575    1.180606   -0.673086
  15 C     6.0000    0    12.011    3.968568    1.522152   -1.023338
  16 C     6.0000    0    12.011    7.339028   -1.143181    0.952673
  17 C     6.0000    0    12.011    6.082022   -0.788474    3.524540
  18 C     6.0000    0    12.011    7.165474    1.547747    4.825450
  19 C     6.0000    0    12.011    3.239419   -0.459449    3.156286
  20 C     6.0000    0    12.011   -1.900013    4.356718   -1.284217
  21 C     6.0000    0    12.011   -4.681875    4.957857   -0.747672
  22 C     6.0000    0    12.011   -5.749689    6.727458   -2.764548
  23 C     6.0000    0    12.011   -5.536995    5.504372   -5.366931
  24 C     6.0000    0    12.011   -2.760459    4.951740   -5.916192
  25 C     6.0000    0    12.011   -1.722511    3.153031   -3.911729
  26 C     6.0000    0    12.011   -1.250184    7.411995   -5.874406
  27 C     6.0000    0    12.011   -1.484475    8.627942   -3.266600
  28 C     6.0000    0    12.011   -4.258872    9.197982   -2.721065
  29 C     6.0000    0    12.011   -0.415097    6.831938   -1.260405
  30 C     6.0000    0    12.011   -2.180443   -3.838957    3.204741
  31 O     8.0000    0    15.999   -1.926469   -4.898506    5.065447
  32 H     1.0000    0     1.008   -1.806217    5.281603    4.111704
  33 H     1.0000    0     1.008   -0.514724    2.567919    5.579869
  34 H     1.0000    0     1.008   -4.591182    0.274901    4.937944
  35 H     1.0000    0     1.008   -5.994441    3.108135    3.908154
  36 H     1.0000    0     1.008   -4.863814    5.159096    8.000835
  37 H     1.0000    0     1.008   -3.511564    2.294642    9.041360
  38 H     1.0000    0     1.008   -9.053162    3.028175    7.588765
  39 H     1.0000    0     1.008   -7.871715    2.759562   10.695506
  40 H     1.0000    0     1.008   -7.695813    0.162523    8.611416
  41 H     1.0000    0     1.008    2.934799    4.467164    4.717011
  42 H     1.0000    0     1.008    3.440314    5.911918    1.760544
  43 H     1.0000    0     1.008    7.405433    5.551886    4.112834
  44 H     1.0000    0     1.008    9.938897    3.325031    0.848846
  45 H     1.0000    0     1.008    7.563167    5.194562   -0.560600
  46 H     1.0000    0     1.008    7.698731    0.938173   -2.531340
  47 H     1.0000    0     1.008    3.172725   -0.135213   -1.966801
  48 H     1.0000    0     1.008    3.651860    3.164899   -2.228150
  49 H     1.0000    0     1.008    9.373748   -1.399505    1.185755
  50 H     1.0000    0     1.008    6.588530   -2.830223    0.030233
  51 H     1.0000    0     1.008    6.422221   -2.459235    4.699846
  52 H     1.0000    0     1.008    9.198776    1.324351    5.099941
  53 H     1.0000    0     1.008    6.299739    1.786402    6.684876
  54 H     1.0000    0     1.008    2.322259   -0.300781    5.000728
  55 H     1.0000    0     1.008    2.478547   -2.137060    2.212183
  56 H     1.0000    0     1.008   -4.865042    5.882229    1.086156
  57 H     1.0000    0     1.008   -5.768498    3.200851   -0.708636
  58 H     1.0000    0     1.008   -7.740376    7.110309   -2.338947
  59 H     1.0000    0     1.008   -6.310062    6.765952   -6.806161
  60 H     1.0000    0     1.008   -6.624030    3.750340   -5.410661
  61 H     1.0000    0     1.008   -2.584754    4.063398   -7.778351
  62 H     1.0000    0     1.008    0.232723    2.683381   -4.363184
  63 H     1.0000    0     1.008   -2.811784    1.392235   -3.924613
  64 H     1.0000    0     1.008   -1.965309    8.703502   -7.316731
  65 H     1.0000    0     1.008    0.733660    7.027658   -6.300367
  66 H     1.0000    0     1.008   -0.395993   10.390728   -3.226112
  67 H     1.0000    0     1.008   -5.000363   10.499244   -4.140972
  68 H     1.0000    0     1.008   -4.445908   10.104584   -0.874949
  69 H     1.0000    0     1.008   -0.533415    7.727591    0.596823
  70 H     1.0000    0     1.008    1.569664    6.493382   -1.697388

--------------------------------
INTERNAL COORDINATES (ANGSTROEM)
--------------------------------
 O      0   0   0     0.000000000000     0.00000000     0.00000000
 C      1   0   0     1.141571731970     0.00000000     0.00000000
 Ni     2   1   0     1.799100962171   173.93194052     0.00000000
 C      3   2   1     1.798465996028   112.53090408    77.76420508
 O      4   3   2     1.141417607266   177.01412456   316.64840717
 P      3   2   1     2.362094477341   107.36061544   193.87547097
 C      6   3   2     1.853610807202   113.44261951    73.07953273
 C      7   6   3     1.527271059444   114.60963269   331.00061863
 C      8   7   6     1.527321107847   111.38947275   169.25391633
 C      9   8   7     1.523478172296   111.49729948   180.37039630
 C      6   3   2     1.900429125280   113.70649980   187.19039036
 C     11   6   3     1.531061623091   115.64704064   198.08596972
 C     12  11   6     1.532994979195   109.57381247   176.93330018
 C     13  12  11     1.527126195971   109.99976321    59.59446280
 C     14  13  12     1.527457991893   109.17175253   299.49851889
 C     15  14  13     1.529173175324   109.10842731    60.25539309
 C     15  14  13     1.526017012688   109.65570141   299.70953267
 C     17  15  14     1.526415082171   108.94246556    60.19528376
 C     13  12  11     1.526560230197   109.81271457   298.99778238
 C     18  17  15     1.526771173812   109.24260822    59.78988117
 C      6   3   2     1.899161905038   112.94523688   314.86208839
 C     21   6   3     1.532605719689   106.79839963    72.90518678
 C     22  21   6     1.528168446095   110.66909628   186.04089559
 C     23  22  21     1.525790997638   110.06848763    59.40999923
 C     24  23  22     1.526035506697   108.91830575   300.55264589
 C     25  24  23     1.527349056906   109.47477461    60.14138606
 C     25  24  23     1.527804430992   109.73034665   300.01341363
 C     27  25  24     1.527670762937   109.24095249    60.16346336
 C     28  27  25     1.526365097942   109.39938891   299.71787353
 C     21   6   3     1.527504620948   116.12645168   193.84186461
 C      3   2   1     1.800593710810   111.69110479   307.15244937
 O     31   3   2     1.141033747116   179.46911532   320.00129814
 H      7   6   3     1.093449980753   109.41024692   205.57475208
 H      7   6   3     1.093100687219   106.07008013    89.20653281
 H      8   7   6     1.094787978298   108.82948830    48.86428150
 H      8   7   6     1.090043567993   111.11493963   290.93696301
 H      9   8   7     1.093286895072   109.42262160    59.15129363
 H      9   8   7     1.092881360809   109.45044119   301.45041365
 H     10   9   8     1.087829165973   110.55607059   299.83532853
 H     10   9   8     1.087381794354   110.66022029   179.68084415
 H     10   9   8     1.087669643492   110.40126200    59.62024432
 H     12  11   6     1.090707323799   110.86896528    57.15382837
 H     12  11   6     1.088641553760   111.07997958   297.21919516
 H     13  12  11     1.096361622841   108.60502046   179.32228248
 H     14  13  12     1.092125134086   109.87557067   178.80050874
 H     14  13  12     1.092915738288   109.99315207    60.32646708
 H     15  14  13     1.096059070336   109.56642316   179.46436358
 H     16  15  14     1.093535122342   109.88323724   179.19640358
 H     16  15  14     1.090990259739   108.44582969    61.05830543
 H     17  15  14     1.092224260504   110.01935601   299.37582361
 H     17  15  14     1.092241936970   109.92621333   180.68402349
 H     18  17  15     1.095859528088   109.58638376   179.19875686
 H     19  13  12     1.092154565434   109.97981724   181.28573138
 H     19  13  12     1.092711619271   110.01681864   299.88932178
 H     20  18  17     1.093276233426   109.40174940   177.15722613
 H     20  18  17     1.095362960824   109.14427736    59.38476436
 H     22  21   6     1.091047531957   110.06979114    66.39206203
 H     22  21   6     1.093406655934   109.39834760   307.23130564
 H     23  22  21     1.096118118297   108.97298310   179.57273335
 H     24  23  22     1.092286165203   110.02493797   179.68944977
 H     24  23  22     1.092233300837   109.92295094    60.99849995
 H     25  24  23     1.095749616179   109.58453881   179.71820488
 H     26  25  24     1.090583057727   109.33330301   177.07130240
 H     26  25  24     1.095676236252   109.66138587    59.20474722
 H     27  25  24     1.092170385938   109.99094842   299.51835161
 H     27  25  24     1.092823588946   109.93405104   181.00492682
 H     28  27  25     1.096539758250   109.47112794   179.75425117
 H     29  28  27     1.092110431208   109.88090781   299.71810026
 H     29  28  27     1.092856993401   110.05585327   181.15885103
 H     30  21   6     1.092912881515   110.47598757   301.58204184
 H     30  21   6     1.090265964714   110.66510635    61.76007989

---------------------------
INTERNAL COORDINATES (A.U.)
---------------------------
 O      0   0   0     0.000000000000     0.00000000     0.00000000
 C      1   0   0     2.157257935650     0.00000000     0.00000000
 Ni     2   1   0     3.399808105778   173.93194052     0.00000000
 C      3   2   1     3.398608193663   112.53090408    77.76420508
 O      4   3   2     2.156966682169   177.01412456   316.64840717
 P      3   2   1     4.463711664623   107.36061544   193.87547097
 C      6   3   2     3.502816784488   113.44261951    73.07953273
 C      7   6   3     2.886124034612   114.60963269   331.00061863
 C      8   7   6     2.886218612388   111.38947275   169.25391633
 C      9   8   7     2.878956516645   111.49729948   180.37039630
 C      6   3   2     3.591290583706   113.70649980   187.19039036
 C     11   6   3     2.893287161799   115.64704064   198.08596972
 C     12  11   6     2.896940675355   109.57381247   176.93330018
 C     13  12  11     2.885850282323   109.99976321    59.59446280
 C     14  13  12     2.886477285747   109.17175253   299.49851889
 C     15  14  13     2.889718512701   109.10842731    60.25539309
 C     15  14  13     2.883754229686   109.65570141   299.70953267
 C     17  15  14     2.884506471989   108.94246556    60.19528376
 C     13  12  11     2.884780762009   109.81271457   298.99778238
 C     18  17  15     2.885179387670   109.24260822    59.78988117
 C      6   3   2     3.588895884498   112.94523688   314.86208839
 C     21   6   3     2.896205081493   106.79839963    72.90518678
 C     22  21   6     2.887819849620   110.66909628   186.04089559
 C     23  22  21     2.883327123138   110.06848763    59.40999923
 C     24  23  22     2.883789178297   108.91830575   300.55264589
 C     25  24  23     2.886271428455   109.47477461    60.14138606
 C     25  24  23     2.887131960766   109.73034665   300.01341363
 C     27  25  24     2.886879364750   109.24095249    60.16346336
 C     28  27  25     2.884412015486   109.39938891   299.71787353
 C     21   6   3     2.886565401891   116.12645168   193.84186461
 C      3   2   1     3.402628991892   111.69110479   307.15244937
 O     31   3   2     2.156241291611   179.46911532   320.00129814
 H      7   6   3     2.066321004765   109.41024692   205.57475208
 H      7   6   3     2.065660935645   106.07008013    89.20653281
 H      8   7   6     2.068849453692   108.82948830    48.86428150
 H      8   7   6     2.059883817550   111.11493963   290.93696301
 H      9   8   7     2.066012817492   109.42262160    59.15129363
 H      9   8   7     2.065246468797   109.45044119   301.45041365
 H     10   9   8     2.055699204181   110.55607059   299.83532853
 H     10   9   8     2.054853794340   110.66022029   179.68084415
 H     10   9   8     2.055397750380   110.40126200    59.62024432
 H     12  11   6     2.061138134242   110.86896528    57.15382837
 H     12  11   6     2.057234394614   111.07997958   297.21919516
 H     13  12  11     2.071823210910   108.60502046   179.32228248
 H     14  13  12     2.063817407394   109.87557067   178.80050874
 H     14  13  12     2.065311432817   109.99315207    60.32646708
 H     15  14  13     2.071251469535   109.56642316   179.46436358
 H     16  15  14     2.066481899050   109.88323724   179.19640358
 H     16  15  14     2.061672805682   108.44582969    61.05830543
 H     17  15  14     2.064004729177   110.01935601   299.37582361
 H     17  15  14     2.064038132857   109.92621333   180.68402349
 H     18  17  15     2.070874389335   109.58638376   179.19875686
 H     19  13  12     2.063873024582   109.97981724   181.28573138
 H     19  13  12     2.064925703775   110.01681864   299.88932178
 H     20  18  17     2.065992669899   109.40174940   177.15722613
 H     20  18  17     2.069936013199   109.14427736    59.38476436
 H     22  21   6     2.061781034490   110.06979114    66.39206203
 H     22  21   6     2.066239132722   109.39834760   307.23130564
 H     23  22  21     2.071363054011   108.97298310   179.57273335
 H     24  23  22     2.064121712105   110.02493797   179.68944977
 H     24  23  22     2.064021812931   109.92295094    60.99849995
 H     25  24  23     2.070666685927   109.58453881   179.71820488
 H     26  25  24     2.060903305399   109.33330301   177.07130240
 H     26  25  24     2.070528017962   109.66138587    59.20474722
 H     27  25  24     2.063902921002   109.99094842   299.51835161
 H     27  25  24     2.065137295797   109.93405104   181.00492682
 H     28  27  25     2.072159838048   109.47112794   179.75425117
 H     29  28  27     2.063789622981   109.88090781   299.71810026
 H     29  28  27     2.065200421068   110.05585327   181.15885103
 H     30  21   6     2.065306034299   110.47598757   301.58204184
 H     30  21   6     2.060304086444   110.66510635    61.76007989

---------------------
BASIS SET INFORMATION
---------------------
There are 5 groups of distinct atoms

 Group   1 Type O   : 7s4p1d contracted to 3s2p1d pattern {511/31/1}
 Group   2 Type C   : 7s4p1d contracted to 3s2p1d pattern {511/31/1}
 Group   3 Type Ni  : 17s11p7d1f contracted to 6s4p4d1f pattern {842111/6311/4111/1}
 Group   4 Type P   : 10s7p1d contracted to 4s3p1d pattern {5311/511/1}
 Group   5 Type H   : 4s1p contracted to 2s1p pattern {31/1}

Atom   0O    basis set group =>   1
Atom   1C    basis set group =>   2
Atom   2Ni   basis set group =>   3
Atom   3C    basis set group =>   2
Atom   4O    basis set group =>   1
Atom   5P    basis set group =>   4
Atom   6C    basis set group =>   2
Atom   7C    basis set group =>   2
Atom   8C    basis set group =>   2
Atom   9C    basis set group =>   2
Atom  10C    basis set group =>   2
Atom  11C    basis set group =>   2
Atom  12C    basis set group =>   2
Atom  13C    basis set group =>   2
Atom  14C    basis set group =>   2
Atom  15C    basis set group =>   2
Atom  16C    basis set group =>   2
Atom  17C    basis set group =>   2
Atom  18C    basis set group =>   2
Atom  19C    basis set group =>   2
Atom  20C    basis set group =>   2
Atom  21C    basis set group =>   2
Atom  22C    basis set group =>   2
Atom  23C    basis set group =>   2
Atom  24C    basis set group =>   2
Atom  25C    basis set group =>   2
Atom  26C    basis set group =>   2
Atom  27C    basis set group =>   2
Atom  28C    basis set group =>   2
Atom  29C    basis set group =>   2
Atom  30C    basis set group =>   2
Atom  31O    basis set group =>   1
Atom  32H    basis set group =>   5
Atom  33H    basis set group =>   5
Atom  34H    basis set group =>   5
Atom  35H    basis set group =>   5
Atom  36H    basis set group =>   5
Atom  37H    basis set group =>   5
Atom  38H    basis set group =>   5
Atom  39H    basis set group =>   5
Atom  40H    basis set group =>   5
Atom  41H    basis set group =>   5
Atom  42H    basis set group =>   5
Atom  43H    basis set group =>   5
Atom  44H    basis set group =>   5
Atom  45H    basis set group =>   5
Atom  46H    basis set group =>   5
Atom  47H    basis set group =>   5
Atom  48H    basis set group =>   5
Atom  49H    basis set group =>   5
Atom  50H    basis set group =>   5
Atom  51H    basis set group =>   5
Atom  52H    basis set group =>   5
Atom  53H    basis set group =>   5
Atom  54H    basis set group =>   5
Atom  55H    basis set group =>   5
Atom  56H    basis set group =>   5
Atom  57H    basis set group =>   5
Atom  58H    basis set group =>   5
Atom  59H    basis set group =>   5
Atom  60H    basis set group =>   5
Atom  61H    basis set group =>   5
Atom  62H    basis set group =>   5
Atom  63H    basis set group =>   5
Atom  64H    basis set group =>   5
Atom  65H    basis set group =>   5
Atom  66H    basis set group =>   5
Atom  67H    basis set group =>   5
Atom  68H    basis set group =>   5
Atom  69H    basis set group =>   5
Atom  70H    basis set group =>   5
---------------------------------
AUXILIARY/J BASIS SET INFORMATION
---------------------------------
There are 5 groups of distinct atoms

 Group   1 Type O   : 12s5p4d2f1g contracted to 6s4p3d1f1g pattern {711111/2111/211/2/1}
 Group   2 Type C   : 12s5p4d2f1g contracted to 6s4p3d1f1g pattern {711111/2111/211/2/1}
 Group   3 Type Ni  : 19s5p5d3f3g contracted to 8s5p5d2f3g pattern {121111111/11111/11111/21/111}
 Group   4 Type P   : 14s5p5d2f1g contracted to 8s4p3d1f1g pattern {71111111/2111/311/2/1}
 Group   5 Type H   : 5s2p1d contracted to 3s1p1d pattern {311/2/1}

Atom   0O    basis set group =>   1
Atom   1C    basis set group =>   2
Atom   2Ni   basis set group =>   3
Atom   3C    basis set group =>   2
Atom   4O    basis set group =>   1
Atom   5P    basis set group =>   4
Atom   6C    basis set group =>   2
Atom   7C    basis set group =>   2
Atom   8C    basis set group =>   2
Atom   9C    basis set group =>   2
Atom  10C    basis set group =>   2
Atom  11C    basis set group =>   2
Atom  12C    basis set group =>   2
Atom  13C    basis set group =>   2
Atom  14C    basis set group =>   2
Atom  15C    basis set group =>   2
Atom  16C    basis set group =>   2
Atom  17C    basis set group =>   2
Atom  18C    basis set group =>   2
Atom  19C    basis set group =>   2
Atom  20C    basis set group =>   2
Atom  21C    basis set group =>   2
Atom  22C    basis set group =>   2
Atom  23C    basis set group =>   2
Atom  24C    basis set group =>   2
Atom  25C    basis set group =>   2
Atom  26C    basis set group =>   2
Atom  27C    basis set group =>   2
Atom  28C    basis set group =>   2
Atom  29C    basis set group =>   2
Atom  30C    basis set group =>   2
Atom  31O    basis set group =>   1
Atom  32H    basis set group =>   5
Atom  33H    basis set group =>   5
Atom  34H    basis set group =>   5
Atom  35H    basis set group =>   5
Atom  36H    basis set group =>   5
Atom  37H    basis set group =>   5
Atom  38H    basis set group =>   5
Atom  39H    basis set group =>   5
Atom  40H    basis set group =>   5
Atom  41H    basis set group =>   5
Atom  42H    basis set group =>   5
Atom  43H    basis set group =>   5
Atom  44H    basis set group =>   5
Atom  45H    basis set group =>   5
Atom  46H    basis set group =>   5
Atom  47H    basis set group =>   5
Atom  48H    basis set group =>   5
Atom  49H    basis set group =>   5
Atom  50H    basis set group =>   5
Atom  51H    basis set group =>   5
Atom  52H    basis set group =>   5
Atom  53H    basis set group =>   5
Atom  54H    basis set group =>   5
Atom  55H    basis set group =>   5
Atom  56H    basis set group =>   5
Atom  57H    basis set group =>   5
Atom  58H    basis set group =>   5
Atom  59H    basis set group =>   5
Atom  60H    basis set group =>   5
Atom  61H    basis set group =>   5
Atom  62H    basis set group =>   5
Atom  63H    basis set group =>   5
Atom  64H    basis set group =>   5
Atom  65H    basis set group =>   5
Atom  66H    basis set group =>   5
Atom  67H    basis set group =>   5
Atom  68H    basis set group =>   5
Atom  69H    basis set group =>   5
Atom  70H    basis set group =>   5
--------------------------------------------------------------------------
WARNING: No preset parameters were found for the device that Open MPI
detected:

  Local host:            eu-g9-020-1
  Device name:           mlx5_0
  Device vendor ID:      0x02c9
  Device vendor part ID: 4123

Default device parameters will be used, which may result in lower
performance.  You can edit any of the files specified by the
btl_openib_device_param_files MCA parameter to set values for your
device.

NOTE: You can turn off this warning by setting the MCA parameter
      btl_openib_warn_no_device_params_found to 0.
--------------------------------------------------------------------------
--------------------------------------------------------------------------
WARNING: There is at least non-excluded one OpenFabrics device found,
but there are no active ports detected (or Open MPI was unable to use
them).  This is most certainly not what you wanted.  Check your
cables, subnet manager configuration, etc.  The openib BTL will be
ignored for this job.

  Local host: eu-g9-020-1
--------------------------------------------------------------------------


           ************************************************************
           *        Program running with 10 parallel MPI-processes    *
           *              working on a common directory               *
           ************************************************************
------------------------------------------------------------------------------
                           ORCA GTO INTEGRAL CALCULATION
                           -- RI-GTO INTEGRALS CHOSEN --
------------------------------------------------------------------------------

                         BASIS SET STATISTICS AND STARTUP INFO

Gaussian basis set:
 # of primitive gaussian shells          ...  609
 # of primitive gaussian functions       ... 1121
 # of contracted shells                  ...  320
 # of contracted basis functions         ...  678
 Highest angular momentum                ...    3
 Maximum contraction depth               ...    8
Auxiliary gaussian basis set:
 # of primitive gaussian shells          ... 1094
 # of primitive gaussian functions       ... 2908
 # of contracted shells                  ...  685
 # of contracted aux-basis functions     ... 2039
 Highest angular momentum                ...    4
 Maximum contraction depth               ...   12
Ratio of auxiliary to basis functions    ...  3.01
Integral package used                  ... LIBINT
 One Electron integrals                  ... done
 Ordering auxiliary basis shells         ... done
 Integral threshhold             Thresh  ...  2.500e-11
 Primitive cut-off               TCut    ...  2.500e-12
 Pre-screening matrix                    ... done
 Shell pair data                         ... 
 Ordering of the shell pairs             ... done (   0.006 sec) 37030 of 51360 pairs
 Determination of significant pairs      ... done (   0.000 sec)
 Creation of shell pair data             ... done (   0.004 sec)
 Storage of shell pair data              ... done (   0.012 sec)
 Shell pair data done in (   0.022 sec)
 Computing two index integrals           ... done
 Cholesky decomposition of the V-matrix  ... done


Timings:
 Total evaluation time                   ...   0.771 sec (  0.013 min)
 One electron matrix time                ...   0.237 sec (  0.004 min) = 30.7%
 Schwartz matrix evaluation time         ...   0.199 sec (  0.003 min) = 25.8%
 Two index repulsion integral time       ...   0.078 sec (  0.001 min) = 10.1%
 Cholesky decomposition of V             ...   0.205 sec (  0.003 min) = 26.6%
 Three index repulsion integral time     ...   0.000 sec (  0.000 min) =  0.0%

--------------------------------------------------------------------------
WARNING: No preset parameters were found for the device that Open MPI
detected:

  Local host:            eu-g9-020-1
  Device name:           mlx5_0
  Device vendor ID:      0x02c9
  Device vendor part ID: 4123

Default device parameters will be used, which may result in lower
performance.  You can edit any of the files specified by the
btl_openib_device_param_files MCA parameter to set values for your
device.

NOTE: You can turn off this warning by setting the MCA parameter
      btl_openib_warn_no_device_params_found to 0.
--------------------------------------------------------------------------
--------------------------------------------------------------------------
WARNING: There is at least non-excluded one OpenFabrics device found,
but there are no active ports detected (or Open MPI was unable to use
them).  This is most certainly not what you wanted.  Check your
cables, subnet manager configuration, etc.  The openib BTL will be
ignored for this job.

  Local host: eu-g9-020-1
--------------------------------------------------------------------------


           ************************************************************
           *        Program running with 10 parallel MPI-processes    *
           *              working on a common directory               *
           ************************************************************
-------------------------------------------------------------------------------
                                 ORCA SCF
-------------------------------------------------------------------------------

------------
SCF SETTINGS
------------
Hamiltonian:
 Density Functional     Method          .... DFT(GTOs)
 Exchange Functional    Exchange        .... PBE
   PBE kappa parameter   XKappa         ....  0.804000
   PBE mue parameter    XMuePBE         ....  0.219520
 Correlation Functional Correlation     .... PBE
   PBE beta parameter  CBetaPBE         ....  0.066725
 LDA part of GGA corr.  LDAOpt          .... PW91-LDA
 Gradients option       PostSCFGGA      .... off
 Hybrid DFT is turned on
   Fraction HF Exchange ScalHFX         ....  0.250000
   Scaling of DF-GGA-X  ScalDFX         ....  0.750000
   Scaling of DF-GGA-C  ScalDFC         ....  1.000000
   Scaling of DF-LDA-C  ScalLDAC        ....  1.000000
   Perturbative correction              ....  0.000000
   Density functional embedding theory  .... OFF
   NL short-range parameter             ....  6.900000
 RI-approximation to the Coulomb term is turned on
   Number of auxiliary basis functions  .... 2039
   RIJ-ON(X) (HFX calculated with O(N)) .... on


General Settings:
 Integral files         IntName         .... TEP_Ni
 Hartree-Fock type      HFTyp           .... RHF
 Total Charge           Charge          ....    0
 Multiplicity           Mult            ....    1
 Number of Electrons    NEL             ....  268
 Basis Dimension        Dim             ....  678
 Nuclear Repulsion      ENuc            ....   4574.0428536054 Eh

Convergence Acceleration:
 DIIS                   CNVDIIS         .... on
   Start iteration      DIISMaxIt       ....    12
   Startup error        DIISStart       ....  0.200000
   # of expansion vecs  DIISMaxEq       ....     5
   Bias factor          DIISBfac        ....   1.050
   Max. coefficient     DIISMaxC        ....  10.000
 Newton-Raphson         CNVNR           .... off
 SOSCF                  CNVSOSCF        .... off
 Level Shifting         CNVShift        .... on
   Level shift para.    LevelShift      ....    0.2500
   Turn off err/grad.   ShiftErr        ....    0.0010
 Zerner damping         CNVZerner       .... off
 Static damping         CNVDamp         .... on
   Fraction old density DampFac         ....    0.7000
   Max. Damping (<1)    DampMax         ....    0.9800
   Min. Damping (>=0)   DampMin         ....    0.0000
   Turn off err/grad.   DampErr         ....    0.1000
 Fernandez-Rico         CNVRico         .... off

SCF Procedure:
 Maximum # iterations   MaxIter         ....   125
 SCF integral mode      SCFMode         .... Direct
   Integral package                     .... LIBINT
 Reset frequency        DirectResetFreq ....    20
 Integral Threshold     Thresh          ....  2.500e-11 Eh
 Primitive CutOff       TCut            ....  2.500e-12 Eh

Convergence Tolerance:
 Convergence Check Mode ConvCheckMode   .... Total+1el-Energy
 Convergence forced     ConvForced      .... 0
 Energy Change          TolE            ....  1.000e-08 Eh
 1-El. energy change                    ....  1.000e-05 Eh
 DIIS Error             TolErr          ....  5.000e-07


Diagonalization of the overlap matrix:
Smallest eigenvalue                        ... 5.743e-04
Time for diagonalization                   ...    0.161 sec
Threshold for overlap eigenvalues          ... 1.000e-08
Number of eigenvalues below threshold      ... 0
Time for construction of square roots      ...    0.063 sec
Total time needed                          ...    0.226 sec

-------------------
DFT GRID GENERATION
-------------------

General Integration Accuracy     IntAcc      ...  4.340
Radial Grid Type                 RadialGrid  ... Gauss-Chebyshev
Angular Grid (max. acc.)         AngularGrid ... Lebedev-110
Angular grid pruning method      GridPruning ... 3 (G Style)
Weight generation scheme         WeightScheme... Becke
Basis function cutoff            BFCut       ...    1.0000e-11
Integration weight cutoff        WCut        ...    1.0000e-14
Grids for H and He will be reduced by one unit

# of grid points (after initial pruning)     ...  85544 (   0.0 sec)
# of grid points (after weights+screening)   ...  73056 (   0.2 sec)
nearest neighbour list constructed           ...    0.0 sec
Grid point re-assignment to atoms done       ...    0.0 sec
Grid point division into batches done        ...    0.1 sec
Reduced shell lists constructed in    0.2 sec

Total number of grid points                  ...    73056
Total number of batches                      ...     1180
Average number of points per batch           ...       61
Average number of grid points per atom       ...     1029
Average number of shells per batch           ...   136.61 (42.69%)
Average number of basis functions per batch  ...   262.99 (38.79%)
Average number of large shells per batch     ...    71.91 (52.64%)
Average number of large basis fcns per batch ...   145.99 (55.51%)
Maximum spatial batch extension              ...  21.84, 16.53, 18.03 au
Average spatial batch extension              ...   0.31,  0.33,  0.34 au

Time for grid setup =    0.397 sec

------------------------------
INITIAL GUESS: MODEL POTENTIAL
------------------------------
Loading Hartree-Fock densities                     ... done
Calculating cut-offs                               ... done
Setting up the integral package                    ... done
Initializing the effective Hamiltonian             ... done
Starting the Coulomb interaction                   ... done (   0.3 sec)
Reading the grid                                   ... done
Mapping shells                                     ... done
Starting the XC term evaluation                    ... done (   0.2 sec)
  promolecular density results
     # of electrons  =    268.002468437
[...]
 156:      1446.84    1.063374  ( -0.056669   0.122061  -1.022381)
 157:      1447.68    1.802531  ( -1.151494   0.641401  -0.255337)
 158:      1450.27    0.066862  (  0.042488  -0.009416  -0.254888)
 159:      1458.18    6.345325  (  0.535818   1.666250  -1.811584)
 160:      1461.48   11.493783  (  2.334658   2.416394   0.451881)
 161:      1462.13   15.246425  ( -0.389531   2.082978   3.279618)
 162:      1462.96    5.621006  ( -1.492922  -0.775968   1.670348)
 163:      1463.20    6.864959  (  1.635257   2.007988  -0.398593)
 164:      1463.90   23.398197  ( -3.915757   1.905266  -2.105945)
 165:      1464.68    2.228779  (  0.398801   0.640779  -1.288076)
 166:      1468.95    9.242248  (  1.332730  -2.337117   1.415615)
 167:      1469.73    0.730976  ( -0.240688  -0.030700   0.819819)
 168:      1480.31    6.329547  ( -0.418398  -1.563486  -1.926136)
 169:      1486.18    0.165459  ( -0.305672  -0.097550   0.250016)
 170:      1487.75    1.286990  ( -0.675285   0.677225   0.610203)
 171:      2117.01  900.671503  ( 27.944172 -10.124871  -4.157132)
 172:      2120.32  890.043082  (  2.056436  -6.069834  29.137111)
 173:      2179.85  356.682462  ( -6.937168 -17.482771  -1.706134)
 174:      3037.82   19.283077  ( -2.640547  -2.780479  -2.139982)
 175:      3042.74   21.318522  ( -2.517295  -3.275952   2.061526)
 176:      3045.41   22.605053  ( -3.193631   0.136990   3.519518)
 177:      3045.99   22.905196  ( -0.489993   4.737728  -0.468017)
 178:      3047.63   20.447648  (  2.080190   0.255699   4.006878)
 179:      3048.77   23.441405  ( -3.622831   3.179565   0.454828)
 180:      3049.00   18.329811  (  2.937472  -0.265487   3.103319)
 181:      3050.66   25.418757  (  4.377563   1.019027  -2.284137)
 182:      3052.80   13.743705  ( -2.801917  -0.764479   2.304027)
 183:      3053.80   21.648566  ( -3.231922   0.158622  -3.343364)
 184:      3058.98    5.945138  (  1.120737   1.732932   1.298474)
 185:      3066.95   15.126755  ( -1.796944   0.919466  -3.324504)
 186:      3069.46   42.143218  ( -3.081693  -5.320290  -2.083482)
 187:      3071.44   39.483058  ( -2.969569  -0.505036  -5.514495)
 188:      3073.26   37.762979  ( -3.902266   0.562802   4.713656)
 189:      3076.82   55.885115  ( -6.041619  -4.223751   1.242529)
 190:      3077.66   70.779928  ( -3.537047   5.863195  -4.887962)
 191:      3079.15   26.625314  ( -2.130360  -4.589647  -1.010949)
 192:      3080.30   38.660227  ( -4.594070   3.730546   1.907294)
 193:      3081.90   10.182993  (  1.035270  -2.436765   1.781399)
 194:      3083.58   26.564212  ( -2.932526   1.913668   3.781849)
 195:      3085.46   34.616092  ( -0.066170   1.331790   5.730449)
 196:      3090.16   23.415912  (  0.679974   3.931064   2.738665)
 197:      3097.54   22.957239  (  3.744557  -2.116357   2.111058)
 198:      3098.74    8.806934  ( -2.195006   1.609937   1.181941)
 199:      3100.31   31.979863  ( -3.111559   1.380429  -4.515803)
 200:      3101.13   15.877533  ( -2.437065   1.658075   2.681237)
 201:      3103.84   64.405415  ( -7.892007   0.610736  -1.322363)
 202:      3104.19   46.209557  ( -0.287605  -5.535599   3.934970)
 203:      3115.38    0.420148  (  0.138419  -0.624152   0.106875)
 204:      3121.18   10.390987  ( -0.303029   2.003535   2.506992)
 205:      3129.47   17.207239  (  3.361163  -2.119803  -1.190066)
 206:      3134.59    2.439733  (  0.551242   0.761596   1.247332)
 207:      3134.62   13.653962  (  1.513034  -3.370157   0.082071)
 208:      3135.37    3.945138  ( -1.200293  -0.696793  -1.420885)
 209:      3138.82   17.218828  ( -2.987652  -2.502244   1.425321)
 210:      3141.53   33.170208  (  2.577714  -3.901072   3.362623)
 211:      3150.37   23.948723  ( -0.756961   2.841777   3.911526)
 212:      3153.42   14.952736  (  1.084263   2.558458  -2.689127)

The first frequency considered to be a vibration is 6
The total number of vibrations considered is 207


--------------------------
THERMOCHEMISTRY AT 298.15K
--------------------------

Temperature         ... 298.15 K
Pressure            ... 1.00 atm
Total Mass          ... 501.28 AMU

Throughout the following assumptions are being made:
  (1) The electronic state is orbitally nondegenerate
  (2) There are no thermally accessible electronically excited states
  (3) Hindered rotations indicated by low frequency modes are not
      treated as such but are treated as vibrations and this may
      cause some error
  (4) All equations used are the standard statistical mechanics
      equations for an ideal gas
  (5) All vibrations are strictly harmonic

freq.      22.51  E(vib)   ...       0.56 
freq.      31.32  E(vib)   ...       0.55 
freq.      44.97  E(vib)   ...       0.53 
freq.      50.57  E(vib)   ...       0.52 
freq.      56.06  E(vib)   ...       0.52 
freq.      58.51  E(vib)   ...       0.51 
freq.      61.88  E(vib)   ...       0.51 
freq.      63.34  E(vib)   ...       0.51 
freq.      69.77  E(vib)   ...       0.50 
freq.      70.14  E(vib)   ...       0.50 
freq.      74.64  E(vib)   ...       0.49 
freq.      85.23  E(vib)   ...       0.48 
freq.      98.16  E(vib)   ...       0.46 
freq.     102.45  E(vib)   ...       0.46 
freq.     142.46  E(vib)   ...       0.41 
freq.     163.62  E(vib)   ...       0.39 
freq.     175.67  E(vib)   ...       0.38 
freq.     178.62  E(vib)   ...       0.37 
freq.     184.81  E(vib)   ...       0.37 
freq.     193.14  E(vib)   ...       0.36 
freq.     216.53  E(vib)   ...       0.34 
freq.     237.92  E(vib)   ...       0.32 
freq.     260.26  E(vib)   ...       0.30 
freq.     302.23  E(vib)   ...       0.26 
freq.     315.97  E(vib)   ...       0.25 
freq.     323.27  E(vib)   ...       0.25 
freq.     331.15  E(vib)   ...       0.24 
freq.     334.57  E(vib)   ...       0.24 
freq.     340.22  E(vib)   ...       0.23 
freq.     348.69  E(vib)   ...       0.23 
freq.     365.47  E(vib)   ...       0.22 
freq.     374.23  E(vib)   ...       0.21 
freq.     395.42  E(vib)   ...       0.20 
freq.     409.15  E(vib)   ...       0.19 
freq.     412.82  E(vib)   ...       0.19 
freq.     413.73  E(vib)   ...       0.19 
freq.     415.53  E(vib)   ...       0.18 
freq.     425.55  E(vib)   ...       0.18 
freq.     433.82  E(vib)   ...       0.17 
freq.     436.11  E(vib)   ...       0.17 
freq.     444.37  E(vib)   ...       0.17 
freq.     448.53  E(vib)   ...       0.17 
freq.     455.18  E(vib)   ...       0.16 
freq.     460.30  E(vib)   ...       0.16 
freq.     466.61  E(vib)   ...       0.16 
freq.     479.30  E(vib)   ...       0.15 
freq.     481.01  E(vib)   ...       0.15 
freq.     489.32  E(vib)   ...       0.15 
freq.     500.50  E(vib)   ...       0.14 
freq.     509.21  E(vib)   ...       0.14 
freq.     513.35  E(vib)   ...       0.13 
freq.     514.74  E(vib)   ...       0.13 
freq.     657.97  E(vib)   ...       0.08 
freq.     659.77  E(vib)   ...       0.08 
freq.     659.78  E(vib)   ...       0.08 
freq.     661.73  E(vib)   ...       0.08 
freq.     693.13  E(vib)   ...       0.07 
freq.     697.05  E(vib)   ...       0.07 
freq.     717.33  E(vib)   ...       0.07 
freq.     751.95  E(vib)   ...       0.06 
freq.     770.01  E(vib)   ...       0.05 
freq.     795.08  E(vib)   ...       0.05 
freq.     796.33  E(vib)   ...       0.05 
freq.     837.55  E(vib)   ...       0.04 
freq.     838.99  E(vib)   ...       0.04 
freq.     841.20  E(vib)   ...       0.04 
freq.     843.99  E(vib)   ...       0.04 
freq.     855.59  E(vib)   ...       0.04 
freq.     859.72  E(vib)   ...       0.04 
freq.     886.80  E(vib)   ...       0.04 
freq.     890.55  E(vib)   ...       0.04 
freq.     892.31  E(vib)   ...       0.03 
freq.     893.12  E(vib)   ...       0.03 
freq.     894.57  E(vib)   ...       0.03 
freq.     896.87  E(vib)   ...       0.03 
freq.     897.75  E(vib)   ...       0.03 
freq.     914.15  E(vib)   ...       0.03 
freq.     958.40  E(vib)   ...       0.03 
freq.     965.59  E(vib)   ...       0.03 
freq.     968.77  E(vib)   ...       0.03 
freq.     970.77  E(vib)   ...       0.03 
freq.     988.55  E(vib)   ...       0.02 
freq.     991.69  E(vib)   ...       0.02 
freq.     992.66  E(vib)   ...       0.02 
freq.     994.43  E(vib)   ...       0.02 
freq.     995.95  E(vib)   ...       0.02 
freq.     998.50  E(vib)   ...       0.02 
freq.    1046.70  E(vib)   ...       0.02 
freq.    1058.44  E(vib)   ...       0.02 
freq.    1069.74  E(vib)   ...       0.02 
freq.    1071.70  E(vib)   ...       0.02 
freq.    1071.81  E(vib)   ...       0.02 
freq.    1073.67  E(vib)   ...       0.02 
freq.    1074.11  E(vib)   ...       0.02 
freq.    1075.40  E(vib)   ...       0.02 
freq.    1076.38  E(vib)   ...       0.02 
freq.    1078.39  E(vib)   ...       0.02 
freq.    1095.55  E(vib)   ...       0.02 
freq.    1116.39  E(vib)   ...       0.01 
freq.    1122.16  E(vib)   ...       0.01 
freq.    1122.96  E(vib)   ...       0.01 
freq.    1124.37  E(vib)   ...       0.01 
freq.    1125.38  E(vib)   ...       0.01 
freq.    1126.50  E(vib)   ...       0.01 
freq.    1126.82  E(vib)   ...       0.01 
freq.    1127.82  E(vib)   ...       0.01 
freq.    1128.78  E(vib)   ...       0.01 
freq.    1137.21  E(vib)   ...       0.01 
freq.    1138.24  E(vib)   ...       0.01 
freq.    1196.17  E(vib)   ...       0.01 
freq.    1200.93  E(vib)   ...       0.01 
freq.    1201.77  E(vib)   ...       0.01 
freq.    1203.16  E(vib)   ...       0.01 
freq.    1213.43  E(vib)   ...       0.01 
freq.    1222.03  E(vib)   ...       0.01 
freq.    1265.12  E(vib)   ...       0.01 
freq.    1274.18  E(vib)   ...       0.01 
freq.    1275.96  E(vib)   ...       0.01 
freq.    1285.05  E(vib)   ...       0.01 
freq.    1295.80  E(vib)   ...       0.01 
freq.    1314.22  E(vib)   ...       0.01 
freq.    1319.95  E(vib)   ...       0.01 
freq.    1325.98  E(vib)   ...       0.01 
freq.    1326.72  E(vib)   ...       0.01 
freq.    1327.47  E(vib)   ...       0.01 
freq.    1328.61  E(vib)   ...       0.01 
freq.    1331.02  E(vib)   ...       0.01 
freq.    1331.92  E(vib)   ...       0.01 
freq.    1340.21  E(vib)   ...       0.01 
freq.    1341.09  E(vib)   ...       0.01 
freq.    1342.35  E(vib)   ...       0.01 
freq.    1342.55  E(vib)   ...       0.01 
freq.    1343.29  E(vib)   ...       0.01 
freq.    1343.97  E(vib)   ...       0.01 
freq.    1347.20  E(vib)   ...       0.01 
freq.    1349.90  E(vib)   ...       0.01 
freq.    1372.56  E(vib)   ...       0.01 
freq.    1374.09  E(vib)   ...       0.01 
freq.    1374.40  E(vib)   ...       0.01 
freq.    1375.05  E(vib)   ...       0.01 
freq.    1376.00  E(vib)   ...       0.01 
freq.    1378.52  E(vib)   ...       0.01 
freq.    1386.70  E(vib)   ...       0.00 
freq.    1396.94  E(vib)   ...       0.00 
freq.    1398.82  E(vib)   ...       0.00 
freq.    1399.03  E(vib)   ...       0.00 
freq.    1400.13  E(vib)   ...       0.00 
freq.    1403.82  E(vib)   ...       0.00 
freq.    1429.29  E(vib)   ...       0.00 
freq.    1446.41  E(vib)   ...       0.00 
freq.    1446.84  E(vib)   ...       0.00 
freq.    1447.68  E(vib)   ...       0.00 
freq.    1450.27  E(vib)   ...       0.00 
freq.    1458.18  E(vib)   ...       0.00 
freq.    1461.48  E(vib)   ...       0.00 
freq.    1462.13  E(vib)   ...       0.00 
freq.    1462.96  E(vib)   ...       0.00 
freq.    1463.20  E(vib)   ...       0.00 
freq.    1463.90  E(vib)   ...       0.00 
freq.    1464.68  E(vib)   ...       0.00 
freq.    1468.95  E(vib)   ...       0.00 
freq.    1469.73  E(vib)   ...       0.00 
freq.    1480.31  E(vib)   ...       0.00 
freq.    1486.18  E(vib)   ...       0.00 
freq.    1487.75  E(vib)   ...       0.00 
freq.    2117.01  E(vib)   ...       0.00 
freq.    2120.32  E(vib)   ...       0.00 
freq.    2179.85  E(vib)   ...       0.00 
freq.    3037.82  E(vib)   ...       0.00 
freq.    3042.74  E(vib)   ...       0.00 
freq.    3045.41  E(vib)   ...       0.00 
freq.    3045.99  E(vib)   ...       0.00 
freq.    3047.63  E(vib)   ...       0.00 
freq.    3048.77  E(vib)   ...       0.00 
freq.    3049.00  E(vib)   ...       0.00 
freq.    3050.66  E(vib)   ...       0.00 
freq.    3052.80  E(vib)   ...       0.00 
freq.    3053.80  E(vib)   ...       0.00 
freq.    3058.98  E(vib)   ...       0.00 
freq.    3066.95  E(vib)   ...       0.00 
freq.    3069.46  E(vib)   ...       0.00 
freq.    3071.44  E(vib)   ...       0.00 
freq.    3073.26  E(vib)   ...       0.00 
freq.    3076.82  E(vib)   ...       0.00 
freq.    3077.66  E(vib)   ...       0.00 
freq.    3079.15  E(vib)   ...       0.00 
freq.    3080.30  E(vib)   ...       0.00 
freq.    3081.90  E(vib)   ...       0.00 
freq.    3083.58  E(vib)   ...       0.00 
freq.    3085.46  E(vib)   ...       0.00 
freq.    3090.16  E(vib)   ...       0.00 
freq.    3097.54  E(vib)   ...       0.00 
freq.    3098.74  E(vib)   ...       0.00 
freq.    3100.31  E(vib)   ...       0.00 
freq.    3101.13  E(vib)   ...       0.00 
freq.    3103.84  E(vib)   ...       0.00 
freq.    3104.19  E(vib)   ...       0.00 
freq.    3115.38  E(vib)   ...       0.00 
freq.    3121.18  E(vib)   ...       0.00 
freq.    3129.47  E(vib)   ...       0.00 
freq.    3134.59  E(vib)   ...       0.00 
freq.    3134.62  E(vib)   ...       0.00 
freq.    3135.37  E(vib)   ...       0.00 
freq.    3138.82  E(vib)   ...       0.00 
freq.    3141.53  E(vib)   ...       0.00 
freq.    3150.37  E(vib)   ...       0.00 
freq.    3153.42  E(vib)   ...       0.00 

------------
INNER ENERGY
------------

The inner energy is: U= E(el) + E(ZPE) + E(vib) + E(rot) + E(trans)
    E(el)   - is the total energy from the electronic structure calculation
              = E(kin-el) + E(nuc-el) + E(el-el) + E(nuc-nuc)
    E(ZPE)  - the the zero temperature vibrational energy from the frequency calculation
    E(vib)  - the the finite temperature correction to E(ZPE) due to population
              of excited vibrational states
    E(rot)  - is the rotational thermal energy
    E(trans)- is the translational thermal energy

Summary of contributions to the inner energy U:
Electronic energy                ...  -3125.10806363 Eh
Zero point energy                ...      0.62017065 Eh     389.16 kcal/mol
Thermal vibrational correction   ...      0.02854004 Eh      17.91 kcal/mol
Thermal rotational correction    ...      0.00141627 Eh       0.89 kcal/mol
Thermal translational correction ...      0.00141627 Eh       0.89 kcal/mol
-----------------------------------------------------------------------
Total thermal energy                  -3124.45652040 Eh


Summary of corrections to the electronic energy:
(perhaps to be used in another calculation)
Total thermal correction                  0.03137258 Eh      19.69 kcal/mol
Non-thermal (ZPE) correction              0.62017065 Eh     389.16 kcal/mol
-----------------------------------------------------------------------
Total correction                          0.65154323 Eh     408.85 kcal/mol


--------
ENTHALPY
--------

The enthalpy is H = U + kB*T
                kB is Boltzmann's constant
Total free energy                 ...  -3124.45652040 Eh 
Thermal Enthalpy correction       ...      0.00094421 Eh       0.59 kcal/mol
-----------------------------------------------------------------------
Total Enthalpy                    ...  -3124.45557619 Eh


Note: Only C1 symmetry has been detected, increase convergence thresholds 
      if your molecule has a higher symmetry. Symmetry factor of 1.0 is   
      used for the rotational entropy correction. 
 

Note: Rotational entropy computed according to Herzberg 
Infrared and Raman Spectra, Chapter V,1, Van Nostrand Reinhold, 1945 
Point Group:  C1, Symmetry Number:   1  
Rotational constants in cm-1:     0.004685     0.003972     0.003273 

Vibrational entropy computed according to the QRRHO of S. Grimme
Chem.Eur.J. 2012 18 9955


-------
ENTROPY
-------

The entropy contributions are T*S = T*(S(el)+S(vib)+S(rot)+S(trans))
     S(el)   - electronic entropy
     S(vib)  - vibrational entropy
     S(rot)  - rotational entropy
     S(trans)- translational entropy
The entropies will be listed as mutliplied by the temperature to get
units of energy

Electronic entropy                ...      0.00000000 Eh      0.00 kcal/mol
Vibrational entropy               ...      0.04996385 Eh     31.35 kcal/mol
Rotational entropy                ...      0.01735404 Eh     10.89 kcal/mol
Translational entropy             ...      0.02115426 Eh     13.27 kcal/mol
-----------------------------------------------------------------------
Final entropy term                ...      0.08847215 Eh     55.52 kcal/mol

In case the symmetry of your molecule has not been determined correctly
or in case you have a reason to use a different symmetry number we print 
out the resulting rotational entropy values for sn=1,12 :
 --------------------------------------------------------
|  sn= 1 | S(rot)=       0.01735404 Eh     10.89 kcal/mol|
|  sn= 2 | S(rot)=       0.01669958 Eh     10.48 kcal/mol|
|  sn= 3 | S(rot)=       0.01631675 Eh     10.24 kcal/mol|
|  sn= 4 | S(rot)=       0.01604513 Eh     10.07 kcal/mol|
|  sn= 5 | S(rot)=       0.01583444 Eh      9.94 kcal/mol|
|  sn= 6 | S(rot)=       0.01566229 Eh      9.83 kcal/mol|
|  sn= 7 | S(rot)=       0.01551675 Eh      9.74 kcal/mol|
|  sn= 8 | S(rot)=       0.01539067 Eh      9.66 kcal/mol|
|  sn= 9 | S(rot)=       0.01527946 Eh      9.59 kcal/mol|
|  sn=10 | S(rot)=       0.01517998 Eh      9.53 kcal/mol|
|  sn=11 | S(rot)=       0.01508999 Eh      9.47 kcal/mol|
|  sn=12 | S(rot)=       0.01500784 Eh      9.42 kcal/mol|
 --------------------------------------------------------


-------------------
GIBBS FREE ENERGY
-------------------

The Gibbs free energy is G = H - T*S

Total enthalpy                    ...  -3124.45557619 Eh 
Total entropy correction          ...     -0.08847215 Eh    -55.52 kcal/mol
-----------------------------------------------------------------------
Final Gibbs free energy         ...  -3124.54404834 Eh

For completeness - the Gibbs free energy minus the electronic energy
G-E(el)                           ...      0.56401529 Eh    353.92 kcal/mol

--------------------------------------------------------------------------
WARNING: No preset parameters were found for the device that Open MPI
detected:

  Local host:            eu-g9-020-1
  Device name:           mlx5_0
  Device vendor ID:      0x02c9
  Device vendor part ID: 4123

Default device parameters will be used, which may result in lower
performance.  You can edit any of the files specified by the
btl_openib_device_param_files MCA parameter to set values for your
device.

NOTE: You can turn off this warning by setting the MCA parameter
      btl_openib_warn_no_device_params_found to 0.
--------------------------------------------------------------------------
--------------------------------------------------------------------------
WARNING: There is at least non-excluded one OpenFabrics device found,
but there are no active ports detected (or Open MPI was unable to use
them).  This is most certainly not what you wanted.  Check your
cables, subnet manager configuration, etc.  The openib BTL will be
ignored for this job.

  Local host: eu-g9-020-1
--------------------------------------------------------------------------

Timings for individual modules:

Sum of individual times         ...    23836.505 sec (= 397.275 min)
GTO integral calculation        ...       53.083 sec (=   0.885 min)   0.2 %
SCF iterations                  ...     3945.115 sec (=  65.752 min)  16.6 %
SCF Gradient evaluation         ...      933.383 sec (=  15.556 min)   3.9 %
Geometry relaxation             ...       16.169 sec (=   0.269 min)   0.1 %
Analytical frequency calculation...    18888.754 sec (= 314.813 min)  79.2 %
                             ****ORCA TERMINATED NORMALLY****
TOTAL RUN TIME: 0 days 6 hours 37 minutes 36 seconds 507 msec
