
                                 *****************
                                 * O   R   C   A *
                                 *****************

           --- An Ab Initio, DFT and Semiempirical electronic structure package ---

                  #######################################################
                  #                        -***-                        #
                  #          Department of theory and spectroscopy      #
                  #               Directorship: Frank Neese             #
                  #        Max Planck Institute fuer Kohlenforschung    #
                  #                Kaiser Wilhelm Platz 1               #
                  #                 D-45470 Muelheim/Ruhr               #
                  #                      Germany                        #
                  #                                                     #
                  #                  All rights reserved                #
                  #                        -***-                        #
                  #######################################################


                         Program Version 4.2.0 -  RELEASE  -


 With contributions from (in alphabetic order):
   Daniel Aravena         : Magnetic Suceptibility
   Michael Atanasov       : Ab Initio Ligand Field Theory (pilot matlab implementation)
   Alexander A. Auer      : GIAO ZORA, VPT2
   Ute Becker             : Parallelization
   Giovanni Bistoni       : ED, misc. LED, open-shell LED, HFLED
   Martin Brehm           : Molecular dynamics
   Dmytro Bykov           : SCF Hessian
   Vijay G. Chilkuri      : MRCI spin determinant printing, contributions to CSF-ICE
   Dipayan Datta          : RHF DLPNO-CCSD density
   Achintya Kumar Dutta   : EOM-CC, STEOM-CC
   Dmitry Ganyushin       : Spin-Orbit,Spin-Spin,Magnetic field MRCI
   Miquel Garcia          : C-PCM Hessian, Gaussian charge scheme
   Yang Guo               : DLPNO-NEVPT2, CIM, IAO-localization
   Andreas Hansen         : Spin unrestricted coupled pair/coupled cluster methods
   Benjamin Helmich-Paris : CASSCF linear response (MC-RPA)
   Lee Huntington         : MR-EOM, pCC
   Robert Izsak           : Overlap fitted RIJCOSX, COSX-SCS-MP3, EOM
   Christian Kollmar      : KDIIS, OOCD, Brueckner-CCSD(T), CCSD density
   Simone Kossmann        : Meta GGA functionals, TD-DFT gradient, OOMP2, MP2 Hessian
   Martin Krupicka        : AUTO-CI
   Lucas Lang             : DCDCAS
   Dagmar Lenk            : GEPOL surface, SMD
   Dimitrios Liakos       : Extrapolation schemes; Compound Job, initial MDCI parallelization
   Dimitrios Manganas     : Further ROCIS development; embedding schemes
   Dimitrios Pantazis     : SARC Basis sets
   Taras Petrenko         : DFT Hessian,TD-DFT gradient, ASA, ECA, R-Raman, ABS, FL, XAS/XES, NRVS
   Peter Pinski           : DLPNO-MP2, DLPNO-MP2 Gradient
   Christoph Reimann      : Effective Core Potentials
   Marius Retegan         : Local ZFS, SOC
   Christoph Riplinger    : Optimizer, TS searches, QM/MM, DLPNO-CCSD(T), (RO)-DLPNO pert. Triples
   Tobias Risthaus        : Range-separated hybrids, TD-DFT gradient, RPA, STAB
   Michael Roemelt        : Original ROCIS implementation
   Masaaki Saitow         : Open-shell DLPNO-CCSD energy and density
   Barbara Sandhoefer     : DKH picture change effects
   Avijit Sen             : IP-ROCIS
   Kantharuban Sivalingam : CASSCF convergence, NEVPT2, FIC-MRCI
   Bernardo de Souza      : ESD, SOC TD-DFT
   Georgi Stoychev        : AutoAux, RI-MP2 NMR
   Willem Van den Heuvel  : Paramagnetic NMR
   Boris Wezisla          : Elementary symmetry handling
   Frank Wennmohs         : Technical directorship


 We gratefully acknowledge several colleagues who have allowed us to
 interface, adapt or use parts of their codes:
   Stefan Grimme, W. Hujo, H. Kruse,             : VdW corrections, initial TS optimization,
                  C. Bannwarth                     DFT functionals, gCP, sTDA/sTD-DF
   Ed Valeev, F. Pavosevic, A. Kumar             : LibInt (2-el integral package), F12 methods
   Garnet Chan, S. Sharma, J. Yang, R. Olivares  : DMRG
   Ulf Ekstrom                                   : XCFun DFT Library
   Mihaly Kallay                                 : mrcc  (arbitrary order and MRCC methods)
   Andreas Klamt, Michael Diedenhofen            : otool_cosmo (COSMO solvation model)
   Jiri Pittner, Ondrej Demel                    : Mk-CCSD
   Frank Weinhold                                : gennbo (NPA and NBO analysis)
   Christopher J. Cramer and Donald G. Truhlar   : smd solvation model
   Lars Goerigk                                  : TD-DFT with DH, B97 family of functionals
   V. Asgeirsson, H. Jonsson                     : NEB implementation
   FAccTs GmbH                                   : IRC, NEB, NEB-TS, Multilevel, MM, QM/MM, CI optimization
   S Lehtola, MJT Oliveira, MAL Marques          : LibXC Library


 Your calculation uses the libint2 library for the computation of 2-el integrals
 For citations please refer to: http://libint.valeyev.net

 Your ORCA version has been built with support for libXC version: 4.2.3
 For citations please refer to: https://tddft.org/programs/libxc/

 This ORCA versions uses:
   CBLAS   interface :  Fast vector & matrix operations
   LAPACKE interface :  Fast linear algebra routines
   SCALAPACK package :  Parallel linear algebra routines




***************************************
The coordinates will be read from file: xtbopt.xyz
***************************************


Your calculation utilizes the atom-pairwise dispersion correction
with the Becke-Johnson damping scheme (D3BJ)
Cite in your paper:
S.Grimme, S.Ehrlich, L.Goerigk, J Comput Chem, (2011), 32, 1456–1465 
S.Grimme, J.Antony, S.Ehrlich and H.Krieg, J.Chem.Phys., 132, (2010), 154104 
   

----- Orbital basis set information -----
Your calculation utilizes the basis: def2-SVP
   F. Weigend and R. Ahlrichs, Phys. Chem. Chem. Phys. 7, 3297 (2005).

----- AuxJ basis set information -----
Your calculation utilizes the auxiliary basis: def2/J
   F. Weigend, Phys. Chem. Chem. Phys. 8, 1057 (2006).

================================================================================
                                        WARNINGS
                       Please study these warnings very carefully!
================================================================================


WARNING: Split-RI-J cannot be used together with RIJONX
  ===> : Split-RI-J will be disabled

WARNING: Geometry Optimization
  ===> : Switching off AutoStart
         For restart on a previous wavefunction, please use MOREAD

INFO   : the flag for use of LIBINT has been found!

================================================================================
                                       INPUT FILE
================================================================================
NAME = TEP_Ni.inp
|  1> ! PBE0 def2-SVP RIJDX D3BJ opt freq
|  2> %pal nprocs 10 end
|  3> %maxcore 3036
|  4> 
|  5> %basis
|  6>   newgto Ni "def2-TZVP" end
|  7> end
|  8> 
|  9> *xyzfile 0 1 xtbopt.xyz
| 10> 
| 11>                          ****END OF INPUT****
================================================================================

                       *****************************
                       * Geometry Optimization Run *
                       *****************************

Geometry optimization settings:
Update method            Update   .... BFGS
Choice of coordinates    CoordSys .... Z-matrix Internals
Initial Hessian          InHess   .... Almoef's Model

Convergence Tolerances:
Energy Change            TolE     ....  5.0000e-06 Eh
Max. Gradient            TolMAXG  ....  3.0000e-04 Eh/bohr
RMS Gradient             TolRMSG  ....  1.0000e-04 Eh/bohr
Max. Displacement        TolMAXD  ....  4.0000e-03 bohr
RMS Displacement         TolRMSD  ....  2.0000e-03 bohr
Strict Convergence                ....  False
------------------------------------------------------------------------------
                        ORCA OPTIMIZATION COORDINATE SETUP
------------------------------------------------------------------------------

The optimization will be done in new redundant internal coordinates
Making redundant internal coordinates   ...  (new redundants) done
Evaluating the initial hessian          ...  (Almloef) done
Evaluating the coordinates              ...  done
Calculating the B-matrix                .... done
Calculating the G-matrix                .... done
Diagonalizing the G-matrix              .... done
Small eigenvalue found = 2.444e-03
Small eigenvalue found = 2.449e-03
Small eigenvalue found = 4.208e-03
Small eigenvalue found = 8.015e-03
Small eigenvalue found = 8.042e-03
Small eigenvalue found = 1.579e-02
Small eigenvalue found = 1.711e-02
Small eigenvalue found = 1.749e-02
Small eigenvalue found = 1.753e-02
Small eigenvalue found = 2.082e-02
Small eigenvalue found = 2.085e-02
Small eigenvalue found = 2.328e-02
The first mode is                       ....  151
The number of degrees of freedom        ....  198

    -----------------------------------------------------------------
                    Redundant Internal Coordinates


    -----------------------------------------------------------------
         Definition                    Initial Value    Approx d2E/dq
    -----------------------------------------------------------------
      1. B(C   1,O   0)                  1.1418         1.392751   
      2. B(Ni  2,C   1)                  1.8034         1.384397   
      3. B(C   3,Ni  2)                  1.8029         1.386932   
      4. B(O   4,C   3)                  1.1419         1.392264   
      5. B(P   5,Ni  2)                  2.4136         0.494629   
      6. B(C   6,P   5)                  1.8465         0.392626   
      7. B(C   7,C   6)                  1.4056         0.589914   
      8. B(C   8,C   7)                  1.5012         0.415242   
      9. B(C   9,C   7)                  1.3897         0.625371   
     10. B(C  10,C   9)                  1.3834         0.640043   
     11. B(C  11,C  10)                  1.4968         0.421972   
     12. B(C  12,C  10)                  1.3857         0.634765   
     13. B(C  13,C  12)                  1.3856         0.635062   
     14. B(C  13,C   6)                  1.4082         0.584397   
     15. B(C  14,C  13)                  1.4997         0.417615   
     16. B(C  15,P   5)                  1.8465         0.392525   
     17. B(C  16,C  15)                  1.4057         0.589686   
     18. B(C  17,C  16)                  1.5012         0.415228   
     19. B(C  18,C  16)                  1.3897         0.625497   
     20. B(C  19,C  18)                  1.3835         0.639907   
     21. B(C  20,C  19)                  1.4967         0.422160   
     22. B(C  21,C  19)                  1.3856         0.634984   
     23. B(C  22,C  21)                  1.3856         0.634869   
     24. B(C  22,C  15)                  1.4082         0.584390   
     25. B(C  23,C  22)                  1.4996         0.417725   
     26. B(C  24,P   5)                  1.8465         0.392626   
     27. B(C  25,C  24)                  1.4075         0.585973   
     28. B(C  26,C  25)                  1.4995         0.417920   
     29. B(C  27,C  25)                  1.3864         0.633052   
     30. B(C  28,C  27)                  1.3846         0.637360   
     31. B(C  29,C  28)                  1.4969         0.421818   
     32. B(C  30,C  28)                  1.3845         0.637449   
     33. B(C  31,C  30)                  1.3888         0.627587   
     34. B(C  31,C  24)                  1.4064         0.588324   
     35. B(C  32,C  31)                  1.5012         0.415269   
     36. B(C  33,Ni  2)                  1.8032         1.385682   
     37. B(O  34,C  33)                  1.1418         1.392616   
     38. B(H  35,C   8)                  1.0853         0.366425   
     39. B(H  36,C   8)                  1.0886         0.361990   
     40. B(H  37,C   8)                  1.0891         0.361342   
     41. B(H  38,C   9)                  1.0814         0.371693   
     42. B(H  39,C  11)                  1.0870         0.364078   
     43. B(H  40,C  11)                  1.0890         0.361466   
     44. B(H  41,C  11)                  1.0897         0.360453   
     45. B(H  42,C  12)                  1.0814         0.371694   
     46. B(H  43,C  14)                  1.0911         0.358628   
     47. B(H  44,C  14)                  1.0873         0.363695   
     48. B(H  45,C  14)                  1.0903         0.359722   
     49. B(H  46,C  17)                  1.0885         0.362053   
     50. B(H  47,C  17)                  1.0890         0.361378   
     51. B(H  48,C  17)                  1.0853         0.366403   
     52. B(H  49,C  18)                  1.0814         0.371709   
     53. B(H  50,C  20)                  1.0871         0.364007   
     54. B(H  51,C  20)                  1.0898         0.360396   
     55. B(H  52,C  20)                  1.0889         0.361574   
     56. B(H  53,C  21)                  1.0814         0.371717   
     57. B(H  54,C  23)                  1.0873         0.363688   
     58. B(H  55,C  23)                  1.0902         0.359848   
     59. B(H  56,C  23)                  1.0912         0.358480   
     60. B(H  57,C  26)                  1.0874         0.363553   
     61. B(H  58,C  26)                  1.0903         0.359769   
     62. B(H  59,C  26)                  1.0912         0.358463   
     63. B(H  60,C  27)                  1.0814         0.371692   
     64. B(H  61,C  29)                  1.0876         0.363317   
     65. B(H  62,C  29)                  1.0907         0.359139   
     66. B(H  63,C  29)                  1.0874         0.363546   
     67. B(H  64,C  30)                  1.0814         0.371674   
     68. B(H  65,C  32)                  1.0890         0.361369   
     69. B(H  66,C  32)                  1.0853         0.366366   
     70. B(H  67,C  32)                  1.0885         0.362098   
     71. L(O   0,C   1,Ni  2,P   5, 2) 179.2907         0.658356   
     72. L(O   0,C   1,Ni  2,P   5, 1) 177.4640         0.658356   
     73. A(C   1,Ni  2,C   3)          115.0648         0.751392   
     74. A(C   1,Ni  2,C  33)          114.8734         0.751257   
     75. A(C   3,Ni  2,P   5)          102.8729         0.645888   
     76. A(C   1,Ni  2,P   5)          103.3140         0.645658   
     77. A(C   3,Ni  2,C  33)          115.2830         0.751531   
     78. A(P   5,Ni  2,C  33)          102.8951         0.645775   
     79. L(Ni  2,C   3,O   4,P   5, 1) 176.5622         0.658547   
     80. L(Ni  2,C   3,O   4,P   5, 2) 180.7017         0.658547   
     81. A(Ni  2,P   5,C   6)          110.6448         0.482168   
     82. A(C   6,P   5,C  15)          108.1487         0.419286   
     83. A(Ni  2,P   5,C  15)          110.8417         0.482145   
     84. A(C  15,P   5,C  24)          108.1441         0.419286   
     85. A(C   6,P   5,C  24)          108.0474         0.419305   
     86. A(Ni  2,P   5,C  24)          110.9047         0.482168   
     87. A(P   5,C   6,C  13)          116.4557         0.422116   
     88. A(P   5,C   6,C   7)          124.7752         0.422825   
     89. A(C   7,C   6,C  13)          118.2202         0.425666   
     90. A(C   8,C   7,C   9)          116.0048         0.404753   
     91. A(C   6,C   7,C   9)          119.3477         0.430870   
     92. A(C   6,C   7,C   8)          124.5556         0.400609   
     93. A(C   7,C   8,H  35)          111.7902         0.330971   
     94. A(H  35,C   8,H  36)          108.1013         0.291877   
     95. A(H  36,C   8,H  37)          107.7059         0.291236   
     96. A(C   7,C   8,H  36)          111.6276         0.330305   
     97. A(H  35,C   8,H  37)          108.2737         0.291794   
     98. A(C   7,C   8,H  37)          109.2030         0.330207   
     99. A(C   7,C   9,C  10)          122.5574         0.437239   
    100. A(C  10,C   9,H  38)          119.1013         0.356730   
    101. A(C   7,C   9,H  38)          118.3406         0.355328   
    102. A(C   9,C  10,C  12)          117.4400         0.438416   
    103. A(C   9,C  10,C  11)          121.7689         0.407571   
    104. A(C  11,C  10,C  12)          120.7473         0.406975   
    105. A(H  39,C  11,H  40)          108.7824         0.291516   
    106. A(H  40,C  11,H  41)          107.7249         0.291057   
    107. A(C  10,C  11,H  41)          110.3274         0.330951   
    108. A(C  10,C  11,H  40)          110.2550         0.331105   
    109. A(C  10,C  11,H  39)          111.0466         0.331500   
    110. A(H  39,C  11,H  41)          108.6185         0.291387   
    111. A(C  10,C  12,C  13)          121.8527         0.437799   
    112. A(C  13,C  12,H  42)          118.7363         0.356257   
    113. A(C  10,C  12,H  42)          119.4110         0.356228   
    114. A(C   6,C  13,C  14)          123.2528         0.400348   
    115. A(C  12,C  13,C  14)          116.5602         0.406262   
    116. A(C   6,C  13,C  12)          120.1262         0.431333   
    117. A(H  44,C  14,H  45)          108.2033         0.291246   
    118. A(H  43,C  14,H  45)          107.2221         0.290604   
    119. A(C  13,C  14,H  45)          109.5650         0.330272   
    120. A(H  43,C  14,H  44)          108.8895         0.291106   
    121. A(C  13,C  14,H  44)          111.9989         0.330873   
    122. A(C  13,C  14,H  43)          110.8114         0.330106   
    123. A(P   5,C  15,C  16)          124.7862         0.422777   
    124. A(C  16,C  15,C  22)          118.2181         0.425636   
    125. A(P   5,C  15,C  22)          116.4655         0.422096   
    126. A(C  17,C  16,C  18)          115.9910         0.404765   
    127. A(C  15,C  16,C  18)          119.3488         0.430855   
    128. A(C  15,C  16,C  17)          124.5656         0.400579   
    129. A(H  46,C  17,H  48)          108.1124         0.291882   
    130. A(H  47,C  17,H  48)          108.2605         0.291796   
    131. A(C  16,C  17,H  48)          111.7697         0.330965   
    132. A(H  46,C  17,H  47)          107.7082         0.291249   
    133. A(C  16,C  17,H  47)          109.2158         0.330210   
    134. A(C  16,C  17,H  46)          111.6350         0.330312   
    135. A(C  16,C  18,C  19)          122.5720         0.437238   
    136. A(C  19,C  18,H  49)          119.0891         0.356719   
    137. A(C  16,C  18,H  49)          118.3379         0.355343   
    138. A(C  18,C  19,C  21)          117.4319         0.438427   
    139. A(C  18,C  19,C  20)          121.7415         0.407588   
    140. A(C  20,C  19,C  21)          120.8035         0.407032   
    141. A(H  51,C  20,H  52)          107.7251         0.291064   
    142. A(C  19,C  20,H  52)          110.5922         0.331146   
    143. A(H  50,C  20,H  51)          108.5114         0.291371   
    144. A(C  19,C  20,H  51)          109.9750         0.330967   
    145. A(C  19,C  20,H  50)          111.0709         0.331513   
    146. A(H  50,C  20,H  52)          108.8770         0.291520   
    147. A(C  22,C  21,H  53)          118.7276         0.356242   
    148. A(C  19,C  21,H  53)          119.4115         0.356253   
    149. A(C  19,C  21,C  22)          121.8609         0.437802   
    150. A(C  21,C  22,C  23)          116.5660         0.406260   
    151. A(C  15,C  22,C  23)          123.2429         0.400366   
    152. A(C  15,C  22,C  21)          120.1333         0.431308   
    153. A(H  54,C  23,H  56)          108.8410         0.291086   
    154. A(H  55,C  23,H  56)          107.2182         0.290602   
    155. A(C  22,C  23,H  56)          110.7938         0.330098   
    156. A(C  22,C  23,H  55)          109.6072         0.330306   
    157. A(C  22,C  23,H  54)          111.9864         0.330886   
    158. A(H  54,C  23,H  55)          108.2452         0.291261   
    159. A(C  25,C  24,C  31)          118.2321         0.425666   
    160. A(P   5,C  24,C  31)          124.7594         0.422621   
    161. A(P   5,C  24,C  25)          116.4686         0.422319   
    162. A(C  26,C  25,C  27)          116.5769         0.406087   
    163. A(C  24,C  25,C  27)          120.1493         0.431296   
    164. A(C  24,C  25,C  26)          123.2176         0.400589   
    165. A(H  58,C  26,H  59)          107.2265         0.290589   
    166. A(H  57,C  26,H  59)          108.8614         0.291067   
    167. A(C  25,C  26,H  59)          110.8147         0.330121   
    168. A(C  25,C  26,H  58)          109.5979         0.330319   
    169. A(C  25,C  26,H  57)          111.9503         0.330892   
    170. A(H  57,C  26,H  58)          108.2423         0.291234   
    171. A(C  28,C  27,H  60)          119.4948         0.356475   
    172. A(C  25,C  27,H  60)          118.6823         0.356065   
    173. A(C  25,C  27,C  28)          121.8228         0.437871   
    174. A(C  29,C  28,C  30)          121.2916         0.407253   
    175. A(C  27,C  28,C  30)          117.4509         0.438418   
    176. A(C  27,C  28,C  29)          121.1770         0.407242   
    177. A(H  62,C  29,H  63)          108.0975         0.291153   
    178. A(H  61,C  29,H  63)          109.0646         0.291683   
    179. A(C  28,C  29,H  63)          110.8863         0.331399   
    180. A(H  61,C  29,H  62)          107.9739         0.291124   
    181. A(C  28,C  29,H  62)          109.9921         0.330731   
    182. A(C  28,C  29,H  61)          110.7390         0.331365   
    183. A(C  31,C  30,H  64)          118.4324         0.355538   
    184. A(C  28,C  30,H  64)          118.9875         0.356480   
    185. A(C  28,C  30,C  31)          122.5795         0.437198   
    186. A(C  30,C  31,C  32)          116.0527         0.405010   
    187. A(C  24,C  31,C  32)          124.5366         0.400423   
    188. A(C  24,C  31,C  30)          119.3176         0.430935   
    189. A(H  66,C  32,H  67)          108.1074         0.291883   
    190. A(H  65,C  32,H  67)          107.7135         0.291253   
    191. A(C  31,C  32,H  67)          111.6432         0.330324   
    192. A(H  65,C  32,H  66)          108.2674         0.291790   
    193. A(C  31,C  32,H  66)          111.7585         0.330965   
    194. A(C  31,C  32,H  65)          109.2122         0.330214   
    195. L(Ni  2,C  33,O  34,P   5, 2) 180.5166         0.658463   
    196. L(Ni  2,C  33,O  34,P   5, 1) 176.9155         0.658463   
    197. D(C  15,P   5,Ni  2,C   3)    -17.0847         0.001838   
    198. D(C  24,P   5,Ni  2,C   1)    -16.9886         0.001838   
    199. D(C  24,P   5,Ni  2,C  33)   -136.8295         0.001838   
    200. D(C  15,P   5,Ni  2,C   1)   -137.1277         0.001838   
    201. D(C   6,P   5,Ni  2,C   3)   -137.0581         0.001838   
    202. D(C   6,P   5,Ni  2,C  33)    -16.9420         0.001838   
    203. D(C  24,P   5,Ni  2,C   3)    103.0543         0.001838   
    204. D(C   6,P   5,Ni  2,C   1)    102.8989         0.001838   
    205. D(C  15,P   5,Ni  2,C  33)    103.0315         0.001838   
    206. D(C   7,C   6,P   5,C  24)   -112.3819         0.003584   
    207. D(C  13,C   6,P   5,C  15)   -166.8659         0.003584   
    208. D(C   7,C   6,P   5,Ni  2)    126.0310         0.003584   
    209. D(C   7,C   6,P   5,C  15)      4.4564         0.003584   
    210. D(C  13,C   6,P   5,C  24)     76.2958         0.003584   
    211. D(C  13,C   6,P   5,Ni  2)    -45.2913         0.003584   
    212. D(C   9,C   7,C   6,C  13)      6.6064         0.023948   
    213. D(C   8,C   7,C   6,P   5)     19.0556         0.023948   
    214. D(C   8,C   7,C   6,C  13)   -169.7625         0.023948   
    215. D(C   9,C   7,C   6,P   5)   -164.5755         0.023948   
    216. D(H  36,C   8,C   7,C   9)     93.0051         0.012759   
    217. D(H  37,C   8,C   7,C   6)    150.5017         0.012759   
    218. D(H  36,C   8,C   7,C   6)    -90.5163         0.012759   
    219. D(H  35,C   8,C   7,C   9)   -145.7665         0.012759   
    220. D(H  37,C   8,C   7,C   9)    -25.9768         0.012759   
    221. D(H  35,C   8,C   7,C   6)     30.7120         0.012759   
    222. D(H  38,C   9,C   7,C   6)    178.7454         0.027091   
    223. D(C  10,C   9,C   7,C   8)    175.1187         0.027091   
    224. D(H  38,C   9,C   7,C   8)     -4.5816         0.027091   
    225. D(C  10,C   9,C   7,C   6)     -1.5543         0.027091   
    226. D(C  11,C  10,C   9,H  38)     -1.8750         0.028463   
    227. D(C  11,C  10,C   9,C   7)    178.4269         0.028463   
    228. D(C  12,C  10,C   9,H  38)    175.7331         0.028463   
    229. D(C  12,C  10,C   9,C   7)     -3.9650         0.028463   
    230. D(H  41,C  11,C  10,C   9)    115.0620         0.013163   
    231. D(H  40,C  11,C  10,C  12)     56.3986         0.013163   
    232. D(H  40,C  11,C  10,C   9)   -126.0714         0.013163   
    233. D(H  39,C  11,C  10,C  12)    177.0442         0.013163   
    234. D(H  41,C  11,C  10,C  12)    -62.4680         0.013163   
    235. D(H  39,C  11,C  10,C   9)     -5.4258         0.013163   
    236. D(H  42,C  12,C  10,C  11)      1.9198         0.027964   
    237. D(H  42,C  12,C  10,C   9)   -175.7141         0.027964   
    238. D(C  13,C  12,C  10,C  11)   -177.9716         0.027964   
    239. D(C  13,C  12,C  10,C   9)      4.3944         0.027964   
    240. D(C  14,C  13,C  12,H  42)      3.5315         0.027992   
    241. D(C  14,C  13,C  12,C  10)   -176.5764         0.027992   
    242. D(C   6,C  13,C  12,H  42)   -179.2103         0.027992   
    243. D(C   6,C  13,C  12,C  10)      0.6818         0.027992   
    244. D(C  14,C  13,C   6,C   7)    170.8499         0.023480   
    245. D(C  14,C  13,C   6,P   5)    -17.2354         0.023480   
    246. D(C  12,C  13,C   6,C   7)     -6.2173         0.023480   
    247. D(C  12,C  13,C   6,P   5)    165.6974         0.023480   
    248. D(H  45,C  14,C  13,C  12)     43.2908         0.012901   
    249. D(H  45,C  14,C  13,C   6)   -133.8733         0.012901   
    250. D(H  44,C  14,C  13,C  12)    163.3668         0.012901   
    251. D(H  44,C  14,C  13,C   6)    -13.7973         0.012901   
    252. D(H  43,C  14,C  13,C  12)    -74.8236         0.012901   
    253. D(H  43,C  14,C  13,C   6)    108.0123         0.012901   
    254. D(C  22,C  15,P   5,C   6)     76.1293         0.003583   
    255. D(C  22,C  15,P   5,Ni  2)    -45.3237         0.003583   
    256. D(C  16,C  15,P   5,C  24)      4.3744         0.003583   
    257. D(C  16,C  15,P   5,C   6)   -112.4013         0.003583   
    258. D(C  22,C  15,P   5,C  24)   -167.0950         0.003583   
    259. D(C  16,C  15,P   5,Ni  2)    126.1457         0.003583   
    260. D(C  18,C  16,C  15,C  22)      6.4703         0.023928   
    261. D(C  18,C  16,C  15,P   5)   -164.8621         0.023928   
    262. D(C  17,C  16,C  15,C  22)   -169.8453         0.023928   
    263. D(C  17,C  16,C  15,P   5)     18.8224         0.023928   
    264. D(H  48,C  17,C  16,C  18)   -145.0498         0.012758   
    265. D(H  48,C  17,C  16,C  15)     31.3774         0.012758   
    266. D(H  47,C  17,C  16,C  18)    -25.2809         0.012758   
    267. D(H  47,C  17,C  16,C  15)    151.1464         0.012758   
    268. D(H  46,C  17,C  16,C  18)     93.7168         0.012758   
    269. D(H  46,C  17,C  16,C  15)    -89.8560         0.012758   
    270. D(H  49,C  18,C  16,C  17)     -4.5525         0.027103   
    271. D(H  49,C  18,C  16,C  15)    178.8226         0.027103   
    272. D(C  19,C  18,C  16,C  17)    175.0717         0.027103   
    273. D(C  19,C  18,C  16,C  15)     -1.5532         0.027103   
    274. D(C  21,C  19,C  18,H  49)    175.7723         0.028450   
    275. D(C  21,C  19,C  18,C  16)     -3.8492         0.028450   
    276. D(C  20,C  19,C  18,H  49)     -2.4937         0.028450   
    277. D(C  20,C  19,C  18,C  16)    177.8847         0.028450   
    278. D(H  52,C  20,C  19,C  21)    -50.6134         0.013174   
    279. D(H  52,C  20,C  19,C  18)    127.5949         0.013174   
    280. D(H  51,C  20,C  19,C  21)     68.2428         0.013174   
    281. D(H  51,C  20,C  19,C  18)   -113.5489         0.013174   
    282. D(H  50,C  20,C  19,C  21)   -171.6205         0.013174   
    283. D(H  50,C  20,C  19,C  18)      6.5878         0.013174   
    284. D(H  53,C  21,C  19,C  20)      2.5126         0.027985   
    285. D(H  53,C  21,C  19,C  18)   -175.7706         0.027985   
    286. D(C  22,C  21,C  19,C  20)   -177.4198         0.027985   
    287. D(C  22,C  21,C  19,C  18)      4.2969         0.027985   
    288. D(C  23,C  22,C  21,H  53)      3.3886         0.027974   
    289. D(C  23,C  22,C  21,C  19)   -176.6785         0.027974   
    290. D(C  15,C  22,C  21,H  53)   -179.2879         0.027974   
    291. D(C  15,C  22,C  21,C  19)      0.6450         0.027974   
    292. D(C  23,C  22,C  15,C  16)    171.0741         0.023480   
    293. D(C  23,C  22,C  15,P   5)    -16.8730         0.023480   
    294. D(C  21,C  22,C  15,C  16)     -6.0635         0.023480   
    295. D(C  21,C  22,C  15,P   5)    165.9894         0.023480   
    296. D(H  56,C  23,C  22,C  21)    -76.3437         0.012907   
    297. D(H  56,C  23,C  22,C  15)    106.4241         0.012907   
    298. D(H  55,C  23,C  22,C  21)     41.7815         0.012907   
    299. D(H  55,C  23,C  22,C  15)   -135.4508         0.012907   
    300. D(H  54,C  23,C  22,C  21)    161.9304         0.012907   
    301. D(H  54,C  23,C  22,C  15)    -15.3019         0.012907   
    302. D(C  31,C  24,P   5,C  15)   -112.0281         0.003584   
    303. D(C  31,C  24,P   5,C   6)      4.8131         0.003584   
    304. D(C  31,C  24,P   5,Ni  2)    126.2394         0.003584   
    305. D(C  25,C  24,P   5,C  15)     76.5782         0.003584   
    306. D(C  25,C  24,P   5,C   6)   -166.5806         0.003584   
    307. D(C  25,C  24,P   5,Ni  2)    -45.1543         0.003584   
    308. D(C  27,C  25,C  24,C  31)     -6.1962         0.023613   
    309. D(C  27,C  25,C  24,P   5)    165.7825         0.023613   
    310. D(C  26,C  25,C  24,C  31)    170.9811         0.023613   
    311. D(C  26,C  25,C  24,P   5)    -17.0402         0.023613   
    312. D(H  59,C  26,C  25,C  27)    -75.9876         0.012919   
    313. D(H  59,C  26,C  25,C  24)    106.7415         0.012919   
    314. D(H  58,C  26,C  25,C  27)     42.1547         0.012919   
    315. D(H  58,C  26,C  25,C  24)   -135.1161         0.012919   
    316. D(H  57,C  26,C  25,C  27)    162.2705         0.012919   
    317. D(H  57,C  26,C  25,C  24)    -15.0004         0.012919   
    318. D(H  60,C  27,C  25,C  26)      3.5073         0.027804   
    319. D(H  60,C  27,C  25,C  24)   -179.1330         0.027804   
    320. D(C  28,C  27,C  25,C  26)   -176.6216         0.027804   
    321. D(C  28,C  27,C  25,C  24)      0.7381         0.027804   
    322. D(C  29,C  28,C  27,H  60)      0.9813         0.028209   
    323. D(C  29,C  28,C  27,C  25)   -178.8888         0.028209   
    324. D(C  30,C  28,C  27,H  60)   -175.7982         0.028209   
    325. D(C  30,C  28,C  27,C  25)      4.3317         0.028209   
    326. D(H  63,C  29,C  28,C  30)    -27.7837         0.013154   
    327. D(H  63,C  29,C  28,C  27)    155.5608         0.013154   
    328. D(H  62,C  29,C  28,C  30)     91.7299         0.013154   
    329. D(H  62,C  29,C  28,C  27)    -84.9257         0.013154   
    330. D(H  61,C  29,C  28,C  30)   -149.0031         0.013154   
    331. D(H  61,C  29,C  28,C  27)     34.3414         0.013154   
    332. D(H  64,C  30,C  28,C  29)     -1.0309         0.028217   
    333. D(H  64,C  30,C  28,C  27)    175.7447         0.028217   
    334. D(C  31,C  30,C  28,C  29)    179.2487         0.028217   
    335. D(C  31,C  30,C  28,C  27)     -3.9757         0.028217   
    336. D(C  32,C  31,C  30,H  64)     -4.5361         0.027295   
    337. D(C  32,C  31,C  30,C  28)    175.1858         0.027295   
    338. D(C  24,C  31,C  30,H  64)    178.8115         0.027295   
    339. D(C  24,C  31,C  30,C  28)     -1.4667         0.027295   
    340. D(C  32,C  31,C  24,C  25)   -169.8346         0.023813   
    341. D(C  32,C  31,C  24,P   5)     18.9109         0.023813   
    342. D(C  30,C  31,C  24,C  25)      6.5142         0.023813   
    343. D(C  30,C  31,C  24,P   5)   -164.7403         0.023813   
    344. D(H  67,C  32,C  31,C  30)     93.6066         0.012761   
    345. D(H  67,C  32,C  31,C  24)    -89.9369         0.012761   
    346. D(H  66,C  32,C  31,C  30)   -145.1685         0.012761   
    347. D(H  66,C  32,C  31,C  24)     31.2879         0.012761   
    348. D(H  65,C  32,C  31,C  30)    -25.4004         0.012761   
    349. D(H  65,C  32,C  31,C  24)    151.0560         0.012761   
    -----------------------------------------------------------------

Number of atoms                         .... 68
Number of degrees of freedom            .... 349

         *************************************************************
         *                GEOMETRY OPTIMIZATION CYCLE   1            *
         *************************************************************
---------------------------------
CARTESIAN COORDINATES (ANGSTROEM)
---------------------------------
  O      1.416194    0.352797    1.547750
  C      2.255493   -0.005344    0.861452
  Ni     3.603842   -0.623330   -0.164418
  C      4.778328    0.627902   -0.717203
  O      5.566085    1.397554   -1.018838
  P      4.911443   -1.945946    1.373860
  C      4.593508   -3.746647    1.117326
  C      5.588848   -4.711055    0.882731
  C      7.044509   -4.527018    1.200267
  C      5.225735   -5.958625    0.389656
  C      3.909688   -6.308512    0.145735
  C      3.541143   -7.645200   -0.418151
  C      2.930479   -5.390848    0.490964
  C      3.246458   -4.131963    0.975888
  C      2.095177   -3.263299    1.386947
  C      6.716525   -1.640540    1.132860
  C      7.608046   -1.258012    2.150199
  C      7.346326   -1.424466    3.619032
  C      8.856875   -0.753851    1.807415
  C      9.279080   -0.638990    0.494934
  C     10.609739   -0.050166    0.144508
  C      8.436364   -1.125285   -0.491589
  C      7.178567   -1.626646   -0.197309
  C      6.396736   -2.192461   -1.345077
  C      4.486994   -1.533608    3.122928
  C      4.381972   -0.165708    3.437210
  C      4.941683    0.921768    2.569733
  C      3.788346    0.232237    4.625245
  C      3.298179   -0.684797    5.539492
  C      2.637761   -0.238580    6.806600
  C      3.503120   -2.027202    5.269482
  C      4.098969   -2.471566    4.096352
  C      4.351095   -3.948514    4.003328
  C      3.115108   -1.826805   -1.415114
  O      2.842751   -2.630067   -2.179537
  H      7.190909   -3.877451    2.057250
  H      7.588472   -4.103336    0.357893
  H      7.487045   -5.496013    1.426692
  H      6.006627   -6.681086    0.195675
  H      4.428108   -8.216349   -0.680202
  H      2.927361   -7.522239   -1.309221
  H      2.961901   -8.215560    0.307581
  H      1.888740   -5.658568    0.379272
  H      1.576054   -2.868181    0.512346
  H      2.414419   -2.432744    2.011827
  H      1.373736   -3.855691    1.950257
  H      6.848349   -0.552520    4.039296
  H      8.294501   -1.547749    4.140343
  H      6.730910   -2.295012    3.822103
  H      9.522260   -0.446579    2.602520
  H     11.198216    0.144815    1.037470
  H     10.471910    0.888945   -0.390924
  H     11.167348   -0.723265   -0.504866
  H      8.763651   -1.114816   -1.522174
  H      5.586456   -2.834599   -1.008430
  H      7.056741   -2.781411   -1.982295
  H      5.980666   -1.393888   -1.961472
  H      5.644399    0.534921    1.835579
  H      5.462819    1.651988    3.189283
  H      4.142840    1.451712    2.048374
  H      3.707412    1.289731    4.836263
  H      2.083190    0.683417    6.647851
  H      3.390455   -0.050854    7.573344
  H      1.958789   -1.001747    7.179464
  H      3.192689   -2.761972    5.999651
  H      4.442236   -4.360445    5.007330
  H      5.265740   -4.167178    3.461577
  H      3.531889   -4.465122    3.506501

----------------------------
CARTESIAN COORDINATES (A.U.)
----------------------------
  NO LB      ZA    FRAG     MASS         X           Y           Z
   0 O     8.0000    0    15.999    2.676218    0.666689    2.924824
   1 C     6.0000    0    12.011    4.262264   -0.010098    1.627909
   2 Ni   28.0000    0    58.700    6.810275   -1.177923   -0.310705
   3 C     6.0000    0    12.011    9.029731    1.186562   -1.355317
   4 O     8.0000    0    15.999   10.518375    2.640994   -1.925324
   5 P    15.0000    0    30.974    9.281281   -3.677305    2.596220
   6 C     6.0000    0    12.011    8.680472   -7.080137    2.111440
   7 C     6.0000    0    12.011   10.561392   -8.902604    1.668120
   8 C     6.0000    0    12.011   13.312192   -8.554824    2.268175
   9 C     6.0000    0    12.011    9.875208  -11.260170    0.736343
  10 C     6.0000    0    12.011    7.388240  -11.921361    0.275399
  11 C     6.0000    0    12.011    6.691790  -14.447335   -0.790192
  12 C     6.0000    0    12.011    5.537804  -10.187227    0.927787
  13 C     6.0000    0    12.011    6.134916   -7.808278    1.844162
  14 C     6.0000    0    12.011    3.959310   -6.166742    2.620950
  15 C     6.0000    0    12.011   12.692393   -3.100172    2.140796
  16 C     6.0000    0    12.011   14.377123   -2.377298    4.063287
  17 C     6.0000    0    12.011   13.882545   -2.691851    6.838980
  18 C     6.0000    0    12.011   16.737067   -1.424572    3.415519
  19 C     6.0000    0    12.011   17.534920   -1.207515    0.935289
  20 C     6.0000    0    12.011   20.049501   -0.094800    0.273080
  21 C     6.0000    0    12.011   15.942417   -2.126480   -0.928968
  22 C     6.0000    0    12.011   13.565525   -3.073916   -0.372859
  23 C     6.0000    0    12.011   12.088079   -4.143152   -2.541826
  24 C     6.0000    0    12.011    8.479190   -2.898099    5.901478
  25 C     6.0000    0    12.011    8.280726   -0.313143    6.495385
  26 C     6.0000    0    12.011    9.338427    1.741889    4.856092
  27 C     6.0000    0    12.011    7.158937    0.438865    8.740446
  28 C     6.0000    0    12.011    6.232655   -1.294079   10.468123
  29 C     6.0000    0    12.011    4.984646   -0.450851   12.862609
  30 C     6.0000    0    12.011    6.619937   -3.830858    9.957877
  31 C     6.0000    0    12.011    7.745929   -4.670584    7.740984
  32 C     6.0000    0    12.011    8.222377   -7.461610    7.565194
  33 C     6.0000    0    12.011    5.886702   -3.452161   -2.674177
  34 O     8.0000    0    15.999    5.372021   -4.970107   -4.118728
  35 H     1.0000    0     1.008   13.588848   -7.327321    3.887639
  36 H     1.0000    0     1.008   14.340133   -7.754181    0.676320
  37 H     1.0000    0     1.008   14.148465  -10.385959    2.696056
  38 H     1.0000    0     1.008   11.350880  -12.625423    0.369773
  39 H     1.0000    0     1.008    8.367911  -15.526650   -1.285396
  40 H     1.0000    0     1.008    5.531910  -14.214971   -2.474070
  41 H     1.0000    0     1.008    5.597183  -15.525158    0.581244
  42 H     1.0000    0     1.008    3.569201  -10.693143    0.716721
  43 H     1.0000    0     1.008    2.978311   -5.420077    0.968194
  44 H     1.0000    0     1.008    4.562590   -4.597220    3.801803
  45 H     1.0000    0     1.008    2.595985   -7.286201    3.685451
  46 H     1.0000    0     1.008   12.941504   -1.044112    7.633164
  47 H     1.0000    0     1.008   15.674335   -2.924821    7.824115
  48 H     1.0000    0     1.008   12.719576   -4.336944    7.222728
  49 H     1.0000    0     1.008   17.994463   -0.843913    4.918051
  50 H     1.0000    0     1.008   21.161561    0.273661    1.960535
  51 H     1.0000    0     1.008   19.789042    1.679863   -0.738738
  52 H     1.0000    0     1.008   21.103230   -1.366773   -0.954059
  53 H     1.0000    0     1.008   16.560900   -2.106696   -2.876492
  54 H     1.0000    0     1.008   10.556873   -5.356615   -1.905656
  55 H     1.0000    0     1.008   13.335308   -5.256105   -3.745994
  56 H     1.0000    0     1.008   11.301821   -2.634066   -3.706646
  57 H     1.0000    0     1.008   10.666369    1.010854    3.468741
  58 H     1.0000    0     1.008   10.323231    3.121805    6.026871
  59 H     1.0000    0     1.008    7.828833    2.743338    3.870867
  60 H     1.0000    0     1.008    7.005993    2.437239    9.139213
  61 H     1.0000    0     1.008    3.936659    1.291471   12.562618
  62 H     1.0000    0     1.008    6.407031   -0.096099   14.311546
  63 H     1.0000    0     1.008    3.701575   -1.893028   13.567221
  64 H     1.0000    0     1.008    6.033307   -5.219370   11.337698
  65 H     1.0000    0     1.008    8.394609   -8.240047    9.462483
  66 H     1.0000    0     1.008    9.950806   -7.874826    6.541433
  67 H     1.0000    0     1.008    6.674304   -8.437858    6.626326

--------------------------------
INTERNAL COORDINATES (ANGSTROEM)
--------------------------------
 O      0   0   0     0.000000000000     0.00000000     0.00000000
 C      1   0   0     1.141793348052     0.00000000     0.00000000
 Ni     2   1   0     1.803430961514   177.41296402     0.00000000
 C      3   2   1     1.802933033462   115.06477495   237.04069678
 O      4   3   2     1.141888470263   176.52428383   102.85733980
 P      3   2   1     2.413593519989   103.31402010   348.35109856
 C      6   3   2     1.846460695348   110.64483087   102.89890244
 C      7   6   3     1.405638368354   124.77521529   126.03102239
 C      8   7   6     1.501215492831   124.55557955    19.05558830
 C      8   7   6     1.389749646238   119.34769138   195.42453196
 C     10   8   7     1.383437236886   122.55740594   358.44568058
 C     11  10   8     1.496839354744   121.76893843   178.42688510
 C     11  10   8     1.385691058728   117.43995645   356.03502738
 C     13  11  10     1.385563863442   121.85265562     4.39444689
 C     14  13  11     1.499664645401   116.56022970   183.42362210
 C      6   3   2     1.846530650944   110.84174912   222.87234052
 C     16   6   3     1.405743568970   124.78621792   126.14569879
 C     17  16   6     1.501224700672   124.56562122    18.82236699
 C     17  16   6     1.389695030544   119.34877580   195.13790528
 C     19  17  16     1.383494854306   122.57200118   358.44679433
 C     20  19  17     1.496718075640   121.74153962   177.88472263
 C     20  19  17     1.385597179779   117.43194067   356.15081160
 C     22  20  19     1.385646766159   121.86089841     4.29692410
 C     23  22  20     1.499592365323   116.56596675   183.32145884
 C      6   3   2     1.846460396836   110.90465723   343.01137567
 C     25   6   3     1.407463035975   116.46857866   314.84571131
 C     26  25   6     1.499465602527   123.21761483   342.95982857
 C     26  25   6     1.386426681539   120.14926455   165.78250132
 C     28  26  25     1.384580671392   121.82279628     0.73811025
 C     29  28  26     1.496938163280   121.17702414   181.11124294
 C     29  28  26     1.384542511133   117.45092741     4.33170421
 C     31  29  28     1.388786866795   122.57949913   356.02432133
 C     32  31  29     1.501197665142   116.05274320   175.18576070
 C      3   2   1     1.803178312120   114.87337976    99.60446582
 O     34   3   2     1.141819570141   176.89269991   241.37201704
 H      9   8   7     1.085259994783   111.79016945    30.71201737
 H      9   8   7     1.088574845619   111.62758737   269.48370047
 H      9   8   7     1.089062801162   109.20295181   150.50173042
 H     10   8   7     1.081374348568   118.34058961   178.74538763
 H     12  11  10     1.087009232111   111.04658229   354.57417876
 H     12  11  10     1.088968994340   110.25497060   233.92859671
 H     12  11  10     1.089733069467   110.32744139   115.06200733
 H     13  11  10     1.081374198199   119.41097652   184.28585862
 H     15  14  13     1.091115201363   110.81141190   285.17639310
 H     15  14  13     1.087296098539   111.99893087   163.36681321
 H     15  14  13     1.090285584161   109.56504364    43.29082475
 H     18  17  16     1.088527843582   111.63496914   270.14400618
 H     18  17  16     1.089035801394   109.21575951   151.14635014
 H     18  17  16     1.085276556555   111.76974058    31.37742268
 H     19  17  16     1.081363117943   118.33786940   178.82255448
 H     21  20  19     1.087062635588   111.07094351     6.58775393
 H     21  20  19     1.089776684820   109.97501429   246.45108379
 H     21  20  19     1.088888027471   110.59218111   127.59487806
 H     22  20  19     1.081357052179   119.41145066   184.22935256
 H     24  23  22     1.087301451391   111.98638143   161.93035810
 H     24  23  22     1.090190524458   109.60715372    41.78146343
 H     24  23  22     1.091227537126   110.79381773   283.65630805
 H     27  26  25     1.087402014426   111.95032049   344.99960248
 H     27  26  25     1.090250571562   109.59789984   224.88386812
 H     27  26  25     1.091240372104   110.81473104   106.74154094
 H     28  26  25     1.081375461843   118.68226393   180.86700064
 H     30  29  28     1.087579040267   110.73903782    34.34136332
 H     30  29  28     1.090727145008   109.99206766   275.07434195
 H     30  29  28     1.087407534519   110.88625188   155.56079835
 H     31  29  28     1.081388349090   118.98748875   175.74468321
 H     33  32  31     1.089042558288   109.21224852   334.59955549
 H     33  32  31     1.085303933409   111.75849163   214.83145042
 H     33  32  31     1.088493856174   111.64320444    93.60660229

---------------------------
INTERNAL COORDINATES (A.U.)
---------------------------
 O      0   0   0     0.000000000000     0.00000000     0.00000000
 C      1   0   0     2.157676729351     0.00000000     0.00000000
 Ni     2   1   0     3.407990618696   177.41296402     0.00000000
 C      3   2   1     3.407049671042   115.06477495   237.04069678
 O      4   3   2     2.157856484279   176.52428383   102.85733980
 P      3   2   1     4.561030751387   103.31402010   348.35109856
 C      6   3   2     3.489305031258   110.64483087   102.89890244
 C      7   6   3     2.656271559520   124.77521529   126.03102239
 C      8   7   6     2.836886149450   124.55557955    19.05558830
 C      8   7   6     2.626246226103   119.34769138   195.42453196
 C     10   8   7     2.614317501183   122.55740594   358.44568058
 C     11  10   8     2.828616446941   121.76893843   178.42688510
 C     11  10   8     2.618576607218   117.43995645   356.03502738
 C     13  11  10     2.618336242964   121.85265562     4.39444689
 C     14  13  11     2.833955472531   116.56022970   183.42362210
 C      6   3   2     3.489437228176   110.84174912   222.87234052
 C     16   6   3     2.656470359875   124.78621792   126.14569879
 C     17  16   6     2.836903549748   124.56562122    18.82236699
 C     17  16   6     2.626143017399   119.34877580   195.13790528
 C     19  17  16     2.614426382327   122.57200118   358.44679433
 C     20  19  17     2.828387262650   121.74153962   177.88472263
 C     20  19  17     2.618399201716   117.43194067   356.15081160
 C     22  20  19     2.618492906394   121.86089841     4.29692410
 C     23  22  20     2.833818882980   116.56596675   183.32145884
 C      6   3   2     3.489304467152   110.90465723   343.01137567
 C     25   6   3     2.659719681610   116.46857866   314.84571131
 C     26  25   6     2.833579336012   123.21761483   342.95982857
 C     26  25   6     2.619966732871   120.14926455   165.78250132
 C     28  26  25     2.616478279251   121.82279628     0.73811025
 C     29  28  26     2.828803168014   121.17702414   181.11124294
 C     29  28  26     2.616406166814   117.45092741     4.33170421
 C     31  29  28     2.624426836630   122.57949913   356.02432133
 C     32  31  29     2.836852460001   116.05274320   175.18576070
 C      3   2   1     3.407513180532   114.87337976    99.60446582
 O     34   3   2     2.157726281919   176.89269991   241.37201704
 H      9   8   7     2.050844174240   111.79016945    30.71201737
 H      9   8   7     2.057108334496   111.62758737   269.48370047
 H      9   8   7     2.058030436837   109.20295181   150.50173042
 H     10   8   7     2.043501367042   118.34058961   178.74538763
 H     12  11  10     2.054149753734   111.04658229   354.57417876
 H     12  11  10     2.057853167635   110.25497060   233.92859671
 H     12  11  10     2.059297060371   110.32744139   115.06200733
 H     13  11  10     2.043501082885   119.41097652   184.28585862
 H     15  14  13     2.061908911135   110.81141190   285.17639310
 H     15  14  13     2.054691852720   111.99893087   163.36681321
 H     15  14  13     2.060341161826   109.56504364    43.29082475
 H     18  17  16     2.057019513519   111.63496914   270.14400618
 H     18  17  16     2.057979414670   109.21575951   151.14635014
 H     18  17  16     2.050875471455   111.76974058    31.37742268
 H     19  17  16     2.043480144236   118.33786940   178.82255448
 H     21  20  19     2.054250671679   111.07094351     6.58775393
 H     21  20  19     2.059379481442   109.97501429   246.45108379
 H     21  20  19     2.057700162425   110.59218111   127.59487806
 H     22  20  19     2.043468681603   119.41145066   184.22935256
 H     24  23  22     2.054701968144   111.98638143   161.93035810
 H     24  23  22     2.060161525022   109.60715372    41.78146343
 H     24  23  22     2.062121194961   110.79381773   283.65630805
 H     27  26  25     2.054892004740   111.95032049   344.99960248
 H     27  26  25     2.060274997603   109.59789984   224.88386812
 H     27  26  25     2.062145449555   110.81473104   106.74154094
 H     28  26  25     2.043503470826   118.68226393   180.86700064
 H     30  29  28     2.055226535098   110.73903782    34.34136332
 H     30  29  28     2.061175590899   109.99206766   275.07434195
 H     30  29  28     2.054902436204   110.88625188   155.56079835
 H     31  29  28     2.043527824194   118.98748875   175.74468321
 H     33  32  31     2.057992183349   109.21224852   334.59955549
 H     33  32  31     2.050927206210   111.75849163   214.83145042
 H     33  32  31     2.056955286625   111.64320444    93.60660229

---------------------
BASIS SET INFORMATION
---------------------
There are 5 groups of distinct atoms

 Group   1 Type O   : 7s4p1d contracted to 3s2p1d pattern {511/31/1}
 Group   2 Type C   : 7s4p1d contracted to 3s2p1d pattern {511/31/1}
 Group   3 Type Ni  : 17s11p7d1f contracted to 6s4p4d1f pattern {842111/6311/4111/1}
 Group   4 Type P   : 10s7p1d contracted to 4s3p1d pattern {5311/511/1}
 Group   5 Type H   : 4s1p contracted to 2s1p pattern {31/1}

Atom   0O    basis set group =>   1
Atom   1C    basis set group =>   2
Atom   2Ni   basis set group =>   3
Atom   3C    basis set group =>   2
Atom   4O    basis set group =>   1
Atom   5P    basis set group =>   4
Atom   6C    basis set group =>   2
Atom   7C    basis set group =>   2
Atom   8C    basis set group =>   2
Atom   9C    basis set group =>   2
Atom  10C    basis set group =>   2
Atom  11C    basis set group =>   2
Atom  12C    basis set group =>   2
Atom  13C    basis set group =>   2
Atom  14C    basis set group =>   2
Atom  15C    basis set group =>   2
Atom  16C    basis set group =>   2
Atom  17C    basis set group =>   2
Atom  18C    basis set group =>   2
Atom  19C    basis set group =>   2
Atom  20C    basis set group =>   2
Atom  21C    basis set group =>   2
Atom  22C    basis set group =>   2
Atom  23C    basis set group =>   2
Atom  24C    basis set group =>   2
Atom  25C    basis set group =>   2
Atom  26C    basis set group =>   2
Atom  27C    basis set group =>   2
Atom  28C    basis set group =>   2
Atom  29C    basis set group =>   2
Atom  30C    basis set group =>   2
Atom  31C    basis set group =>   2
Atom  32C    basis set group =>   2
Atom  33C    basis set group =>   2
Atom  34O    basis set group =>   1
Atom  35H    basis set group =>   5
Atom  36H    basis set group =>   5
Atom  37H    basis set group =>   5
Atom  38H    basis set group =>   5
Atom  39H    basis set group =>   5
Atom  40H    basis set group =>   5
Atom  41H    basis set group =>   5
Atom  42H    basis set group =>   5
Atom  43H    basis set group =>   5
Atom  44H    basis set group =>   5
Atom  45H    basis set group =>   5
Atom  46H    basis set group =>   5
Atom  47H    basis set group =>   5
Atom  48H    basis set group =>   5
Atom  49H    basis set group =>   5
Atom  50H    basis set group =>   5
Atom  51H    basis set group =>   5
Atom  52H    basis set group =>   5
Atom  53H    basis set group =>   5
Atom  54H    basis set group =>   5
Atom  55H    basis set group =>   5
Atom  56H    basis set group =>   5
Atom  57H    basis set group =>   5
Atom  58H    basis set group =>   5
Atom  59H    basis set group =>   5
Atom  60H    basis set group =>   5
Atom  61H    basis set group =>   5
Atom  62H    basis set group =>   5
Atom  63H    basis set group =>   5
Atom  64H    basis set group =>   5
Atom  65H    basis set group =>   5
Atom  66H    basis set group =>   5
Atom  67H    basis set group =>   5
---------------------------------
AUXILIARY/J BASIS SET INFORMATION
---------------------------------
There are 5 groups of distinct atoms

 Group   1 Type O   : 12s5p4d2f1g contracted to 6s4p3d1f1g pattern {711111/2111/211/2/1}
 Group   2 Type C   : 12s5p4d2f1g contracted to 6s4p3d1f1g pattern {711111/2111/211/2/1}
 Group   3 Type Ni  : 19s5p5d3f3g contracted to 8s5p5d2f3g pattern {121111111/11111/11111/21/111}
 Group   4 Type P   : 14s5p5d2f1g contracted to 8s4p3d1f1g pattern {71111111/2111/311/2/1}
 Group   5 Type H   : 5s2p1d contracted to 3s1p1d pattern {311/2/1}

Atom   0O    basis set group =>   1
Atom   1C    basis set group =>   2
Atom   2Ni   basis set group =>   3
Atom   3C    basis set group =>   2
Atom   4O    basis set group =>   1
Atom   5P    basis set group =>   4
Atom   6C    basis set group =>   2
Atom   7C    basis set group =>   2
Atom   8C    basis set group =>   2
Atom   9C    basis set group =>   2
Atom  10C    basis set group =>   2
Atom  11C    basis set group =>   2
Atom  12C    basis set group =>   2
Atom  13C    basis set group =>   2
Atom  14C    basis set group =>   2
Atom  15C    basis set group =>   2
Atom  16C    basis set group =>   2
Atom  17C    basis set group =>   2
Atom  18C    basis set group =>   2
Atom  19C    basis set group =>   2
Atom  20C    basis set group =>   2
Atom  21C    basis set group =>   2
Atom  22C    basis set group =>   2
Atom  23C    basis set group =>   2
Atom  24C    basis set group =>   2
Atom  25C    basis set group =>   2
Atom  26C    basis set group =>   2
Atom  27C    basis set group =>   2
Atom  28C    basis set group =>   2
Atom  29C    basis set group =>   2
Atom  30C    basis set group =>   2
Atom  31C    basis set group =>   2
Atom  32C    basis set group =>   2
Atom  33C    basis set group =>   2
Atom  34O    basis set group =>   1
Atom  35H    basis set group =>   5
Atom  36H    basis set group =>   5
Atom  37H    basis set group =>   5
Atom  38H    basis set group =>   5
Atom  39H    basis set group =>   5
Atom  40H    basis set group =>   5
Atom  41H    basis set group =>   5
Atom  42H    basis set group =>   5
Atom  43H    basis set group =>   5
Atom  44H    basis set group =>   5
Atom  45H    basis set group =>   5
Atom  46H    basis set group =>   5
Atom  47H    basis set group =>   5
Atom  48H    basis set group =>   5
Atom  49H    basis set group =>   5
Atom  50H    basis set group =>   5
Atom  51H    basis set group =>   5
Atom  52H    basis set group =>   5
Atom  53H    basis set group =>   5
Atom  54H    basis set group =>   5
Atom  55H    basis set group =>   5
Atom  56H    basis set group =>   5
Atom  57H    basis set group =>   5
Atom  58H    basis set group =>   5
Atom  59H    basis set group =>   5
Atom  60H    basis set group =>   5
Atom  61H    basis set group =>   5
Atom  62H    basis set group =>   5
Atom  63H    basis set group =>   5
Atom  64H    basis set group =>   5
Atom  65H    basis set group =>   5
Atom  66H    basis set group =>   5
Atom  67H    basis set group =>   5
--------------------------------------------------------------------------
WARNING: No preset parameters were found for the device that Open MPI
detected:

  Local host:            eu-g9-019-3
  Device name:           mlx5_0
  Device vendor ID:      0x02c9
  Device vendor part ID: 4123

Default device parameters will be used, which may result in lower
performance.  You can edit any of the files specified by the
btl_openib_device_param_files MCA parameter to set values for your
device.

NOTE: You can turn off this warning by setting the MCA parameter
      btl_openib_warn_no_device_params_found to 0.
--------------------------------------------------------------------------
--------------------------------------------------------------------------
WARNING: There is at least non-excluded one OpenFabrics device found,
but there are no active ports detected (or Open MPI was unable to use
them).  This is most certainly not what you wanted.  Check your
cables, subnet manager configuration, etc.  The openib BTL will be
ignored for this job.

  Local host: eu-g9-019-3
--------------------------------------------------------------------------


           ************************************************************
           *        Program running with 10 parallel MPI-processes    *
           *              working on a common directory               *
           ************************************************************
------------------------------------------------------------------------------
                           ORCA GTO INTEGRAL CALCULATION
                           -- RI-GTO INTEGRALS CHOSEN --
------------------------------------------------------------------------------

                         BASIS SET STATISTICS AND STARTUP INFO

Gaussian basis set:
 # of primitive gaussian shells          ...  615
 # of primitive gaussian functions       ... 1151
 # of contracted shells                  ...  320
 # of contracted basis functions         ...  690
 Highest angular momentum                ...    3
 Maximum contraction depth               ...    8
Auxiliary gaussian basis set:
 # of primitive gaussian shells          ... 1118
 # of primitive gaussian functions       ... 3022
 # of contracted shells                  ...  700
 # of contracted aux-basis functions     ... 2120
 Highest angular momentum                ...    4
 Maximum contraction depth               ...   12
Ratio of auxiliary to basis functions    ...  3.07
Integral package used                  ... LIBINT
 One Electron integrals                  ... done
 Ordering auxiliary basis shells         ... done
 Integral threshhold             Thresh  ...  2.500e-11
 Primitive cut-off               TCut    ...  2.500e-12
 Pre-screening matrix                    ... done
 Shell pair data                         ... 
 Ordering of the shell pairs             ... done (   0.005 sec) 35842 of 51360 pairs
 Determination of significant pairs      ... done (   0.000 sec)
 Creation of shell pair data             ... done (   0.004 sec)
 Storage of shell pair data              ... done (   0.014 sec)
 Shell pair data done in (   0.023 sec)
 Computing two index integrals           ... done
 Cholesky decomposition of the V-matrix  ... done


Timings:
 Total evaluation time                   ...   0.751 sec (  0.013 min)
 One electron matrix time                ...   0.215 sec (  0.004 min) = 28.7%
 Schwartz matrix evaluation time         ...   0.200 sec (  0.003 min) = 26.7%
 Two index repulsion integral time       ...   0.090 sec (  0.002 min) = 12.0%
 Cholesky decomposition of V             ...   0.199 sec (  0.003 min) = 26.5%
 Three index repulsion integral time     ...   0.000 sec (  0.000 min) =  0.0%

--------------------------------------------------------------------------
WARNING: No preset parameters were found for the device that Open MPI
detected:

  Local host:            eu-g9-019-3
  Device name:           mlx5_0
  Device vendor ID:      0x02c9
  Device vendor part ID: 4123

Default device parameters will be used, which may result in lower
performance.  You can edit any of the files specified by the
btl_openib_device_param_files MCA parameter to set values for your
device.

NOTE: You can turn off this warning by setting the MCA parameter
      btl_openib_warn_no_device_params_found to 0.
--------------------------------------------------------------------------
--------------------------------------------------------------------------
WARNING: There is at least non-excluded one OpenFabrics device found,
but there are no active ports detected (or Open MPI was unable to use
them).  This is most certainly not what you wanted.  Check your
cables, subnet manager configuration, etc.  The openib BTL will be
ignored for this job.

  Local host: eu-g9-019-3
--------------------------------------------------------------------------


           ************************************************************
           *        Program running with 10 parallel MPI-processes    *
           *              working on a common directory               *
           ************************************************************
-------------------------------------------------------------------------------
                                 ORCA SCF
-------------------------------------------------------------------------------

------------
SCF SETTINGS
------------
Hamiltonian:
 Density Functional     Method          .... DFT(GTOs)
 Exchange Functional    Exchange        .... PBE
   PBE kappa parameter   XKappa         ....  0.804000
   PBE mue parameter    XMuePBE         ....  0.219520
 Correlation Functional Correlation     .... PBE
   PBE beta parameter  CBetaPBE         ....  0.066725
 LDA part of GGA corr.  LDAOpt          .... PW91-LDA
 Gradients option       PostSCFGGA      .... off
 Hybrid DFT is turned on
   Fraction HF Exchange ScalHFX         ....  0.250000
   Scaling of DF-GGA-X  ScalDFX         ....  0.750000
   Scaling of DF-GGA-C  ScalDFC         ....  1.000000
   Scaling of DF-LDA-C  ScalLDAC        ....  1.000000
   Perturbative correction              ....  0.000000
   Density functional embedding theory  .... OFF
   NL short-range parameter             ....  6.900000
 RI-approximation to the Coulomb term is turned on
   Number of auxiliary basis functions  .... 2120
   RIJ-ON(X) (HFX calculated with O(N)) .... on


General Settings:
 Integral files         IntName         .... TEP_Ni
 Hartree-Fock type      HFTyp           .... RHF
 Total Charge           Charge          ....    0
 Multiplicity           Mult            ....    1
 Number of Electrons    NEL             ....  280
 Basis Dimension        Dim             ....  690
 Nuclear Repulsion      ENuc            ....   4904.9958439293 Eh

Convergence Acceleration:
 DIIS                   CNVDIIS         .... on
   Start iteration      DIISMaxIt       ....    12
   Startup error        DIISStart       ....  0.200000
   # of expansion vecs  DIISMaxEq       ....     5
   Bias factor          DIISBfac        ....   1.050
   Max. coefficient     DIISMaxC        ....  10.000
 Newton-Raphson         CNVNR           .... off
 SOSCF                  CNVSOSCF        .... off
 Level Shifting         CNVShift        .... on
   Level shift para.    LevelShift      ....    0.2500
   Turn off err/grad.   ShiftErr        ....    0.0010
 Zerner damping         CNVZerner       .... off
 Static damping         CNVDamp         .... on
   Fraction old density DampFac         ....    0.7000
   Max. Damping (<1)    DampMax         ....    0.9800
   Min. Damping (>=0)   DampMin         ....    0.0000
   Turn off err/grad.   DampErr         ....    0.1000
 Fernandez-Rico         CNVRico         .... off

SCF Procedure:
 Maximum # iterations   MaxIter         ....   125
 SCF integral mode      SCFMode         .... Direct
   Integral package                     .... LIBINT
 Reset frequency        DirectResetFreq ....    20
 Integral Threshold     Thresh          ....  2.500e-11 Eh
 Primitive CutOff       TCut            ....  2.500e-12 Eh

Convergence Tolerance:
 Convergence Check Mode ConvCheckMode   .... Total+1el-Energy
 Convergence forced     ConvForced      .... 0
 Energy Change          TolE            ....  1.000e-08 Eh
 1-El. energy change                    ....  1.000e-05 Eh
 DIIS Error             TolErr          ....  5.000e-07


Diagonalization of the overlap matrix:
Smallest eigenvalue                        ... 1.890e-04
Time for diagonalization                   ...    0.162 sec
Threshold for overlap eigenvalues          ... 1.000e-08
Number of eigenvalues below threshold      ... 0
Time for construction of square roots      ...    0.053 sec
Total time needed                          ...    0.216 sec

-------------------
DFT GRID GENERATION
-------------------

General Integration Accuracy     IntAcc      ...  4.340
Radial Grid Type                 RadialGrid  ... Gauss-Chebyshev
Angular Grid (max. acc.)         AngularGrid ... Lebedev-110
Angular grid pruning method      GridPruning ... 3 (G Style)
Weight generation scheme         WeightScheme... Becke
Basis function cutoff            BFCut       ...    1.0000e-11
Integration weight cutoff        WCut        ...    1.0000e-14
Grids for H and He will be reduced by one unit

# of grid points (after initial pruning)     ...  85748 (   0.0 sec)
# of grid points (after weights+screening)   ...  73899 (   0.1 sec)
nearest neighbour list constructed           ...    0.0 sec
Grid point re-assignment to atoms done       ...    0.0 sec
Grid point division into batches done        ...    0.1 sec
Reduced shell lists constructed in    0.2 sec

Total number of grid points                  ...    73899
Total number of batches                      ...     1189
Average number of points per batch           ...       62
Average number of grid points per atom       ...     1087
Average number of shells per batch           ...   136.59 (42.68%)
Average number of basis functions per batch  ...   274.73 (39.82%)
Average number of large shells per batch     ...    73.38 (53.72%)
Average number of large basis fcns per batch ...   153.00 (55.69%)
Maximum spatial batch extension              ...  17.83, 16.90, 17.61 au
Average spatial batch extension              ...   0.30,  0.32,  0.32 au

Time for grid setup =    0.318 sec

------------------------------
INITIAL GUESS: MODEL POTENTIAL
------------------------------
Loading Hartree-Fock densities                     ... done
Calculating cut-offs                               ... done
Setting up the integral package                    ... done
Initializing the effective Hamiltonian             ... done
Starting the Coulomb interaction                   ... done (   0.3 sec)
Reading the grid                                   ... done
Mapping shells                                     ... done
Starting the XC term evaluation                    ... done (   0.1 sec)
  promolecular density results
     # of electrons  =    279.982607361
     EX              =   -271.881522935
     EC              =     -9.823368057
     EX+EC           =   -281.704890992
Transforming the Hamiltonian                       ... done (   0.1 sec)
Diagonalizing the Hamiltonian                      ... done (   0.2 sec)
Back transforming the eigenvectors                 ... done (   0.0 sec)
Now organizing SCF variables                       ... done
                      ------------------
                      INITIAL GUESS DONE (   1.1 sec)
                      ------------------
--------------
SCF ITERATIONS
--------------
ITER       Energy         Delta-E        Max-DP      RMS-DP      [F,P]     Damp
               ***  Starting incremental Fock matrix formation  ***
  0  -3234.6822653793   0.000000000000 0.10251635  0.00124197  0.1598644 0.7000
  1  -3234.9875571412  -0.305291761981 0.04591765  0.00082111  0.1202147 0.7000
                               ***Turning on DIIS***
  2  -3235.1395562431  -0.151999101853 0.13010350  0.00154063  0.0384683 0.0000
  3  -3235.3468210542  -0.207264811084 0.01357308  0.00016453  0.1203506 0.7000
  4  -3235.3732279172  -0.026406863029 0.04000972  0.00051267  0.0455020 0.0000
  5  -3235.4066009569  -0.033373039736 0.01277306  0.00013052  0.0395902 0.0000
  6  -3235.4094886205  -0.002887663558 0.00521437  0.00004714  0.0168630 0.0000
  7  -3235.4097161610  -0.000227540490 0.00315627  0.00002848  0.0040935 0.0000
  8  -3235.4097876835  -0.000071522473 0.00117947  0.00000907  0.0040519 0.0000
  9  -3235.4098040233  -0.000016339783 0.00041817  0.00000560  0.0007859 0.0000
 10  -3235.4098053632  -0.000001339994 0.00033908  0.00000367  0.0003233 0.0000
 11  -3235.4098062284  -0.000000865186 0.00009729  0.00000159  0.0000713 0.0000
 12  -3235.4098062792  -0.000000050753 0.00003742  0.00000064  0.0000582 0.0000
 13  -3235.4098063386  -0.000000059386 0.00002068  0.00000024  0.0000259 0.0000
 14  -3235.4098063677  -0.000000029145 0.00000793  0.00000010  0.0000310 0.0000
 15  -3235.4098063738  -0.000000006097 0.00000483  0.00000006  0.0000174 0.0000
 16  -3235.4098063541   0.000000019681 0.00000211  0.00000003  0.0000035 0.0000
 17  -3235.4098063774  -0.000000023237 0.00000199  0.00000002  0.0000016 0.0000
                            ***DIIS convergence achieved***

               *****************************************************
               *                     SUCCESS                       *
               *           SCF CONVERGED AFTER  18 CYCLES          *
               *****************************************************

Setting up the final grid:

General Integration Accuracy     IntAcc      ...  4.670
Radial Grid Type                 RadialGrid  ... Gauss-Chebyshev
Angular Grid (max. acc.)         AngularGrid ... Lebedev-302
Angular grid pruning method      GridPruning ... 3 (G Style)
Weight generation scheme         WeightScheme... Becke
Basis function cutoff            BFCut       ...    1.0000e-11
Integration weight cutoff        WCut        ...    1.0000e-14
Grids for H and He will be reduced by one unit

# of grid points (after initial pruning)     ... 333508 (   0.0 sec)
# of grid points (after weights+screening)   ... 279505 (   0.5 sec)
nearest neighbour list constructed           ...    0.0 sec
Grid point re-assignment to atoms done       ...    0.0 sec
Grid point division into batches done        ...    0.8 sec
Reduced shell lists constructed in    1.2 sec

Total number of grid points                  ...   279505
Total number of batches                      ...     4400
Average number of points per batch           ...       63
Average number of grid points per atom       ...     4110
Average number of shells per batch           ...   123.87 (38.71%)
Average number of basis functions per batch  ...   246.65 (35.75%)
Average number of large shells per batch     ...    64.55 (52.11%)
Average number of large basis fcns per batch ...   134.05 (54.35%)
Maximum spatial batch extension              ...  15.21, 20.94, 20.15 au
Average spatial batch extension              ...   0.21,  0.21,  0.21 au

Final grid set up in    1.8 sec
Final integration                            ... done (   0.8 sec)
Change in XC energy                          ...     0.001606179
Integrated number of electrons               ...   280.000057358
Previous integrated no of electrons          ...   280.000442824

----------------
TOTAL SCF ENERGY
----------------

Total Energy       :        -3235.40820020 Eh          -88039.93299 eV

Components:
Nuclear Repulsion  :         4904.99584393 Eh          133471.72248 eV
Electronic Energy  :        -8140.40404413 Eh         -221511.65548 eV
One Electron Energy:       -14222.07553697 Eh         -387002.35018 eV
Two Electron Energy:         6081.67149284 Eh          165490.69470 eV

Virial components:
Potential Energy   :        -6454.83570419 Eh         -175645.00913 eV
Kinetic Energy     :         3219.42750399 Eh           87605.07614 eV
Virial Ratio       :            2.00496383


DFT components:
N(Alpha)           :      140.000028678944 electrons
N(Beta)            :      140.000028678944 electrons
N(Total)           :      280.000057357887 electrons
E(X)               :     -206.403628816588 Eh       
E(C)               :       -9.848957255901 Eh       
E(XC)              :     -216.252586072489 Eh       
DFET-embed. en.    :        0.000000000000 Eh       

---------------
SCF CONVERGENCE
---------------

  Last Energy change         ...    6.7212e-10  Tolerance :   1.0000e-08
  Last MAX-Density change    ...    6.2388e-07  Tolerance :   1.0000e-07
  Last RMS-Density change    ...    1.2423e-08  Tolerance :   5.0000e-09
  Last DIIS Error            ...    6.0713e-07  Tolerance :   5.0000e-07

             **** THE GBW FILE WAS UPDATED (TEP_Ni.gbw) ****
             **** DENSITY FILE WAS UPDATED (TEP_Ni.scfp) ****
             **** ENERGY FILE WAS UPDATED (TEP_Ni.en.tmp) ****
             **** THE GBW FILE WAS UPDATED (TEP_Ni.gbw) ****
             **** DENSITY FILE WAS UPDATED (TEP_Ni.scfp) ****
----------------
ORBITAL ENERGIES
----------------

  NO   OCC          E(Eh)            E(eV) 
   0   2.0000    -300.130893     -8166.9768 
   1   2.0000     -77.240276     -2101.8148 
   2   2.0000     -35.877611      -976.2794 
   3   2.0000     -31.266834      -850.8138 
   4   2.0000     -31.266776      -850.8122 
   5   2.0000     -31.261101      -850.6578 
   6   2.0000     -19.274999      -524.4994 
   7   2.0000     -19.274912      -524.4970 
   8   2.0000     -19.274856      -524.4955 
   9   2.0000     -10.328731      -281.0591 
  10   2.0000     -10.328701      -281.0582 
  11   2.0000     -10.328613      -281.0558 
  12   2.0000     -10.250527      -278.9310 
  13   2.0000     -10.250324      -278.9255 
  14   2.0000     -10.250286      -278.9245 
  15   2.0000     -10.248892      -278.8865 
  16   2.0000     -10.248881      -278.8862 
  17   2.0000     -10.248840      -278.8851 
  18   2.0000     -10.248445      -278.8744 
  19   2.0000     -10.248430      -278.8740 
  20   2.0000     -10.248388      -278.8728 
  21   2.0000     -10.243301      -278.7344 
  22   2.0000     -10.243204      -278.7318 
  23   2.0000     -10.243133      -278.7298 
  24   2.0000     -10.231971      -278.4261 
  25   2.0000     -10.231750      -278.4201 
  26   2.0000     -10.231720      -278.4193 
  27   2.0000     -10.227865      -278.3144 
  28   2.0000     -10.227810      -278.3129 
  29   2.0000     -10.227748      -278.3112 
  30   2.0000     -10.227382      -278.3012 
  31   2.0000     -10.227039      -278.2919 
  32   2.0000     -10.226974      -278.2901 
  33   2.0000     -10.226501      -278.2772 
  34   2.0000     -10.226475      -278.2765 
  35   2.0000     -10.226393      -278.2743 
  36   2.0000     -10.223457      -278.1944 
  37   2.0000     -10.223338      -278.1912 
  38   2.0000     -10.223323      -278.1907 
  39   2.0000      -6.642665      -180.7561 
  40   2.0000      -4.782850      -130.1480 
  41   2.0000      -4.782837      -130.1476 
  42   2.0000      -4.780612      -130.0871 
  43   2.0000      -4.043983      -110.0424 
  44   2.0000      -2.620865       -71.3174 
  45   2.0000      -2.620728       -71.3136 
  46   2.0000      -2.606433       -70.9247 
  47   2.0000      -1.138322       -30.9753 
  48   2.0000      -1.138146       -30.9705 
  49   2.0000      -1.138081       -30.9688 
  50   2.0000      -0.897316       -24.4172 
  51   2.0000      -0.888598       -24.1800 
  52   2.0000      -0.888502       -24.1774 
  53   2.0000      -0.820421       -22.3248 
  54   2.0000      -0.809696       -22.0330 
  55   2.0000      -0.809640       -22.0314 
  56   2.0000      -0.804668       -21.8961 
  57   2.0000      -0.800787       -21.7905 
  58   2.0000      -0.800712       -21.7885 
  59   2.0000      -0.736086       -20.0299 
  60   2.0000      -0.720581       -19.6080 
  61   2.0000      -0.720436       -19.6041 
  62   2.0000      -0.720393       -19.6029 
  63   2.0000      -0.703310       -19.1380 
  64   2.0000      -0.703178       -19.1345 
  65   2.0000      -0.694268       -18.8920 
  66   2.0000      -0.691964       -18.8293 
  67   2.0000      -0.691848       -18.8261 
  68   2.0000      -0.636140       -17.3103 
  69   2.0000      -0.594420       -16.1750 
  70   2.0000      -0.594374       -16.1737 
  71   2.0000      -0.591921       -16.1070 
  72   2.0000      -0.586176       -15.9507 
  73   2.0000      -0.586155       -15.9501 
  74   2.0000      -0.571099       -15.5404 
  75   2.0000      -0.565632       -15.3916 
  76   2.0000      -0.556450       -15.1418 
  77   2.0000      -0.556431       -15.1413 
  78   2.0000      -0.516170       -14.0457 
  79   2.0000      -0.516031       -14.0419 
  80   2.0000      -0.510737       -13.8978 
  81   2.0000      -0.499252       -13.5853 
  82   2.0000      -0.499081       -13.5807 
  83   2.0000      -0.480814       -13.0836 
  84   2.0000      -0.469867       -12.7857 
  85   2.0000      -0.469727       -12.7819 
  86   2.0000      -0.469529       -12.7765 
  87   2.0000      -0.462114       -12.5748 
  88   2.0000      -0.461992       -12.5714 
  89   2.0000      -0.459547       -12.5049 
  90   2.0000      -0.455309       -12.3896 
  91   2.0000      -0.451681       -12.2909 
  92   2.0000      -0.451476       -12.2853 
  93   2.0000      -0.447449       -12.1757 
  94   2.0000      -0.442667       -12.0456 
  95   2.0000      -0.442174       -12.0322 
  96   2.0000      -0.439704       -11.9649 
  97   2.0000      -0.438852       -11.9418 
  98   2.0000      -0.436083       -11.8664 
  99   2.0000      -0.435834       -11.8597 
 100   2.0000      -0.432913       -11.7802 
 101   2.0000      -0.432772       -11.7763 
 102   2.0000      -0.425445       -11.5770 
 103   2.0000      -0.419045       -11.4028 
 104   2.0000      -0.418938       -11.3999 
 105   2.0000      -0.416979       -11.3466 
 106   2.0000      -0.416945       -11.3457 
 107   2.0000      -0.415730       -11.3126 
 108   2.0000      -0.412399       -11.2219 
 109   2.0000      -0.412262       -11.2182 
 110   2.0000      -0.411972       -11.2103 
 111   2.0000      -0.409094       -11.1320 
 112   2.0000      -0.407963       -11.1012 
 113   2.0000      -0.407690       -11.0938 
 114   2.0000      -0.398029       -10.8309 
 115   2.0000      -0.397857       -10.8262 
 116   2.0000      -0.384405       -10.4602 
 117   2.0000      -0.378345       -10.2953 
 118   2.0000      -0.378279       -10.2935 
 119   2.0000      -0.369676       -10.0594 
 120   2.0000      -0.358590        -9.7577 
 121   2.0000      -0.358417        -9.7530 
 122   2.0000      -0.354580        -9.6486 
 123   2.0000      -0.350362        -9.5338 
 124   2.0000      -0.350336        -9.5331 
 125   2.0000      -0.349345        -9.5062 
 126   2.0000      -0.329693        -8.9714 
 127   2.0000      -0.329413        -8.9638 
 128   2.0000      -0.316034        -8.5997 
 129   2.0000      -0.273768        -7.4496 
 130   2.0000      -0.273626        -7.4457 
 131   2.0000      -0.256271        -6.9735 
 132   2.0000      -0.256039        -6.9672 
 133   2.0000      -0.254641        -6.9291 
 134   2.0000      -0.253500        -6.8981 
 135   2.0000      -0.253127        -6.8879 
 136   2.0000      -0.246876        -6.7178 
 137   2.0000      -0.231326        -6.2947 
[...]
 141:      1431.48    3.490142  ( -0.198860   0.709432   1.716771)
 142:      1432.28    3.804978  (  1.812554   0.572794  -0.437647)
 143:      1434.87    3.178219  ( -1.106587  -1.322867  -0.451341)
 144:      1450.85    2.835347  ( -0.698918   0.255751   1.510448)
 145:      1451.68    2.217013  (  0.525443   1.333950  -0.401871)
 146:      1453.86    4.646205  (  2.012761   0.180964   0.749834)
 147:      1454.70    3.065645  ( -1.113273  -0.667055  -1.175289)
 148:      1456.09    6.896330  (  2.367152   1.106917   0.260101)
 149:      1456.80    4.385615  (  0.678759  -0.970197  -1.727315)
 150:      1458.18    7.361279  (  0.642395  -2.614462  -0.336444)
 151:      1458.41    5.409063  (  0.960301   0.653118  -2.015024)
 152:      1462.91    0.210076  (  0.111960  -0.378738  -0.232590)
 153:      1463.76    3.749174  (  1.190794   0.880282  -1.247513)
 154:      1464.51   14.662926  (  2.131607  -1.028463   3.010223)
 155:      1466.28   19.401138  (  2.254871  -3.175917   2.056757)
 156:      1484.20   47.683843  (  4.412606  -3.145052   4.280350)
 157:      1486.11   27.592082  (  2.693803  -1.329929  -4.308921)
 158:      1486.65   27.556398  ( -2.712545  -4.494274   0.001767)
 159:      1501.02   20.334442  (  4.018933   0.522512  -1.977270)
 160:      1501.62   23.424556  (  0.827812   4.011644   2.577983)
 161:      1502.15    6.190488  (  1.166406   0.581656  -2.119354)
 162:      1638.08   17.365474  ( -2.330659   1.908009  -2.879758)
 163:      1640.13   14.171290  (  1.916364  -1.995010  -2.553189)
 164:      1640.59   13.142859  (  2.345444   2.762557  -0.100144)
 165:      1686.43   49.471218  (  3.429766   5.777942   2.079258)
 166:      1686.62   49.542483  (  4.839338  -1.147602  -4.980592)
 167:      1687.55    1.733420  (  0.233354  -0.467984  -1.208287)
 168:      2122.22  848.157689  (  0.044157 -22.031855 -19.046078)
 169:      2122.41  844.230375  (-24.273585 -10.561718  11.978045)
 170:      2183.44  349.879719  ( 10.202653 -10.349708  11.775785)
 171:      3053.44   28.628219  ( -1.478486  -4.740431  -1.992639)
 172:      3053.77   25.234359  (  4.559381   1.607060  -1.365198)
 173:      3055.27   26.171102  (  2.061601  -1.558396  -4.415009)
 174:      3071.34    9.639715  (  0.725138   3.009751   0.235140)
 175:      3071.90   10.078264  (  0.935786  -0.586051  -2.976426)
 176:      3072.17    8.802318  ( -2.964755  -0.065314   0.091008)
 177:      3073.36   29.202203  ( -3.130259   3.145935  -3.083307)
 178:      3074.66    6.124754  ( -1.207587  -1.168556   1.816856)
 179:      3075.26    6.157501  (  0.971766   1.240352   1.916950)
 180:      3137.58    6.065380  ( -1.798447  -0.398038  -1.634789)
 181:      3137.75    8.466088  (  0.588235   2.405228  -1.528053)
 182:      3137.84    8.715217  (  2.489879  -1.584625   0.068426)
 183:      3152.70    7.740031  ( -1.544224  -1.702811  -1.567111)
 184:      3153.06    7.405941  (  0.554638   1.499337  -2.202341)
 185:      3155.04    6.995252  (  2.042639  -1.465719  -0.821308)
 186:      3157.51    5.118073  (  0.607398  -1.864452   1.128255)
 187:      3158.31    5.435271  ( -0.758195   0.493928  -2.148592)
 188:      3159.99    4.441468  ( -1.727868   0.921411  -0.779066)
 189:      3165.17    6.576781  ( -0.362136  -0.520357  -2.484928)
 190:      3165.90    6.598656  (  2.546743  -0.331644   0.052625)
 191:      3166.36    7.160123  ( -0.801187  -2.001524   1.584967)
 192:      3175.89    0.951059  (  0.790212   0.507889   0.262055)
 193:      3180.28    8.904188  (  2.597180   1.008019  -1.068992)
 194:      3182.36    8.414261  ( -0.132169  -2.158679  -1.933105)
 195:      3183.00    8.609477  (  0.104277  -2.844765  -0.711278)
 196:      3185.74   10.451101  ( -3.199262  -0.460349  -0.062450)
 197:      3186.13    8.019160  ( -0.782717  -0.313192   2.703410)
 198:      3187.66   17.683732  (  1.339821  -3.731323  -1.402084)
 199:      3189.15    3.200482  (  1.182450   0.095631  -1.339085)
 200:      3190.30   15.443522  ( -1.695118  -1.683528   3.120229)
 201:      3190.70   15.451098  (  3.211019   0.866109   2.095307)
 202:      3193.32    2.092689  (  0.109889  -0.896500  -1.130001)
 203:      3199.01    1.986031  (  0.751017   1.176583  -0.194051)

The first frequency considered to be a vibration is 6
The total number of vibrations considered is 198


--------------------------
THERMOCHEMISTRY AT 298.15K
--------------------------

Temperature         ... 298.15 K
Pressure            ... 1.00 atm
Total Mass          ... 531.27 AMU

Throughout the following assumptions are being made:
  (1) The electronic state is orbitally nondegenerate
  (2) There are no thermally accessible electronically excited states
  (3) Hindered rotations indicated by low frequency modes are not
      treated as such but are treated as vibrations and this may
      cause some error
  (4) All equations used are the standard statistical mechanics
      equations for an ideal gas
  (5) All vibrations are strictly harmonic

freq.      25.06  E(vib)   ...       0.56 
freq.      25.90  E(vib)   ...       0.56 
freq.      29.43  E(vib)   ...       0.55 
freq.      33.77  E(vib)   ...       0.55 
freq.      36.70  E(vib)   ...       0.54 
freq.      37.13  E(vib)   ...       0.54 
freq.      46.43  E(vib)   ...       0.53 
freq.      50.00  E(vib)   ...       0.52 
freq.      51.54  E(vib)   ...       0.52 
freq.      59.41  E(vib)   ...       0.51 
freq.      60.27  E(vib)   ...       0.51 
freq.      67.82  E(vib)   ...       0.50 
freq.      73.67  E(vib)   ...       0.49 
freq.      76.13  E(vib)   ...       0.49 
freq.     104.84  E(vib)   ...       0.46 
freq.     106.73  E(vib)   ...       0.45 
freq.     108.53  E(vib)   ...       0.45 
freq.     124.61  E(vib)   ...       0.43 
freq.     133.66  E(vib)   ...       0.42 
freq.     136.68  E(vib)   ...       0.42 
freq.     142.96  E(vib)   ...       0.41 
freq.     153.99  E(vib)   ...       0.40 
freq.     154.29  E(vib)   ...       0.40 
freq.     159.64  E(vib)   ...       0.39 
freq.     189.64  E(vib)   ...       0.36 
freq.     190.20  E(vib)   ...       0.36 
freq.     191.40  E(vib)   ...       0.36 
freq.     204.60  E(vib)   ...       0.35 
freq.     206.07  E(vib)   ...       0.35 
freq.     207.14  E(vib)   ...       0.34 
freq.     225.22  E(vib)   ...       0.33 
freq.     227.62  E(vib)   ...       0.33 
freq.     230.58  E(vib)   ...       0.32 
freq.     240.98  E(vib)   ...       0.31 
freq.     242.53  E(vib)   ...       0.31 
freq.     245.21  E(vib)   ...       0.31 
freq.     282.05  E(vib)   ...       0.28 
freq.     289.24  E(vib)   ...       0.27 
freq.     290.21  E(vib)   ...       0.27 
freq.     311.59  E(vib)   ...       0.25 
freq.     320.08  E(vib)   ...       0.25 
freq.     333.87  E(vib)   ...       0.24 
freq.     335.08  E(vib)   ...       0.24 
freq.     349.99  E(vib)   ...       0.23 
freq.     354.91  E(vib)   ...       0.22 
freq.     355.92  E(vib)   ...       0.22 
freq.     387.20  E(vib)   ...       0.20 
freq.     388.34  E(vib)   ...       0.20 
freq.     425.28  E(vib)   ...       0.18 
freq.     434.97  E(vib)   ...       0.17 
freq.     440.67  E(vib)   ...       0.17 
freq.     441.56  E(vib)   ...       0.17 
freq.     475.93  E(vib)   ...       0.15 
freq.     476.11  E(vib)   ...       0.15 
freq.     494.66  E(vib)   ...       0.14 
freq.     510.69  E(vib)   ...       0.14 
freq.     511.37  E(vib)   ...       0.14 
freq.     513.51  E(vib)   ...       0.13 
freq.     515.10  E(vib)   ...       0.13 
freq.     517.41  E(vib)   ...       0.13 
freq.     537.60  E(vib)   ...       0.12 
freq.     538.46  E(vib)   ...       0.12 
freq.     539.69  E(vib)   ...       0.12 
freq.     549.30  E(vib)   ...       0.12 
freq.     555.10  E(vib)   ...       0.12 
freq.     555.21  E(vib)   ...       0.12 
freq.     573.06  E(vib)   ...       0.11 
freq.     573.54  E(vib)   ...       0.11 
freq.     573.82  E(vib)   ...       0.11 
freq.     584.51  E(vib)   ...       0.11 
freq.     588.27  E(vib)   ...       0.10 
freq.     588.50  E(vib)   ...       0.10 
freq.     606.34  E(vib)   ...       0.10 
freq.     642.70  E(vib)   ...       0.09 
freq.     643.38  E(vib)   ...       0.09 
freq.     743.90  E(vib)   ...       0.06 
freq.     744.61  E(vib)   ...       0.06 
freq.     745.37  E(vib)   ...       0.06 
freq.     875.89  E(vib)   ...       0.04 
freq.     876.29  E(vib)   ...       0.04 
freq.     876.55  E(vib)   ...       0.04 
freq.     908.64  E(vib)   ...       0.03 
freq.     908.85  E(vib)   ...       0.03 
freq.     909.21  E(vib)   ...       0.03 
freq.     950.96  E(vib)   ...       0.03 
freq.     954.42  E(vib)   ...       0.03 
freq.     955.23  E(vib)   ...       0.03 
freq.     976.09  E(vib)   ...       0.03 
freq.     976.75  E(vib)   ...       0.03 
freq.     978.97  E(vib)   ...       0.03 
freq.    1027.77  E(vib)   ...       0.02 
freq.    1027.83  E(vib)   ...       0.02 
freq.    1029.18  E(vib)   ...       0.02 
freq.    1029.90  E(vib)   ...       0.02 
freq.    1030.66  E(vib)   ...       0.02 
freq.    1031.15  E(vib)   ...       0.02 
freq.    1033.12  E(vib)   ...       0.02 
freq.    1033.68  E(vib)   ...       0.02 
freq.    1033.87  E(vib)   ...       0.02 
freq.    1042.02  E(vib)   ...       0.02 
freq.    1045.47  E(vib)   ...       0.02 
freq.    1046.19  E(vib)   ...       0.02 
freq.    1047.37  E(vib)   ...       0.02 
freq.    1047.66  E(vib)   ...       0.02 
freq.    1048.54  E(vib)   ...       0.02 
freq.    1049.41  E(vib)   ...       0.02 
freq.    1050.01  E(vib)   ...       0.02 
freq.    1050.41  E(vib)   ...       0.02 
freq.    1074.00  E(vib)   ...       0.02 
freq.    1078.29  E(vib)   ...       0.02 
freq.    1078.69  E(vib)   ...       0.02 
freq.    1202.25  E(vib)   ...       0.01 
freq.    1202.58  E(vib)   ...       0.01 
freq.    1203.35  E(vib)   ...       0.01 
freq.    1257.98  E(vib)   ...       0.01 
freq.    1259.33  E(vib)   ...       0.01 
freq.    1259.57  E(vib)   ...       0.01 
freq.    1332.79  E(vib)   ...       0.01 
freq.    1333.38  E(vib)   ...       0.01 
freq.    1335.80  E(vib)   ...       0.01 
freq.    1355.68  E(vib)   ...       0.01 
freq.    1357.50  E(vib)   ...       0.01 
freq.    1358.33  E(vib)   ...       0.01 
freq.    1387.92  E(vib)   ...       0.00 
freq.    1388.17  E(vib)   ...       0.00 
freq.    1388.68  E(vib)   ...       0.00 
freq.    1391.13  E(vib)   ...       0.00 
freq.    1391.48  E(vib)   ...       0.00 
freq.    1391.84  E(vib)   ...       0.00 
freq.    1405.34  E(vib)   ...       0.00 
freq.    1405.63  E(vib)   ...       0.00 
freq.    1407.00  E(vib)   ...       0.00 
freq.    1427.10  E(vib)   ...       0.00 
freq.    1427.73  E(vib)   ...       0.00 
freq.    1429.42  E(vib)   ...       0.00 
freq.    1431.48  E(vib)   ...       0.00 
freq.    1432.28  E(vib)   ...       0.00 
freq.    1434.87  E(vib)   ...       0.00 
freq.    1450.85  E(vib)   ...       0.00 
freq.    1451.68  E(vib)   ...       0.00 
freq.    1453.86  E(vib)   ...       0.00 
freq.    1454.70  E(vib)   ...       0.00 
freq.    1456.09  E(vib)   ...       0.00 
freq.    1456.80  E(vib)   ...       0.00 
freq.    1458.18  E(vib)   ...       0.00 
freq.    1458.41  E(vib)   ...       0.00 
freq.    1462.91  E(vib)   ...       0.00 
freq.    1463.76  E(vib)   ...       0.00 
freq.    1464.51  E(vib)   ...       0.00 
freq.    1466.28  E(vib)   ...       0.00 
freq.    1484.20  E(vib)   ...       0.00 
freq.    1486.11  E(vib)   ...       0.00 
freq.    1486.65  E(vib)   ...       0.00 
freq.    1501.02  E(vib)   ...       0.00 
freq.    1501.62  E(vib)   ...       0.00 
freq.    1502.15  E(vib)   ...       0.00 
freq.    1638.08  E(vib)   ...       0.00 
freq.    1640.13  E(vib)   ...       0.00 
freq.    1640.59  E(vib)   ...       0.00 
freq.    1686.43  E(vib)   ...       0.00 
freq.    1686.62  E(vib)   ...       0.00 
freq.    1687.55  E(vib)   ...       0.00 
freq.    2122.22  E(vib)   ...       0.00 
freq.    2122.41  E(vib)   ...       0.00 
freq.    2183.44  E(vib)   ...       0.00 
freq.    3053.44  E(vib)   ...       0.00 
freq.    3053.77  E(vib)   ...       0.00 
freq.    3055.27  E(vib)   ...       0.00 
freq.    3071.34  E(vib)   ...       0.00 
freq.    3071.90  E(vib)   ...       0.00 
freq.    3072.17  E(vib)   ...       0.00 
freq.    3073.36  E(vib)   ...       0.00 
freq.    3074.66  E(vib)   ...       0.00 
freq.    3075.26  E(vib)   ...       0.00 
freq.    3137.58  E(vib)   ...       0.00 
freq.    3137.75  E(vib)   ...       0.00 
freq.    3137.84  E(vib)   ...       0.00 
freq.    3152.70  E(vib)   ...       0.00 
freq.    3153.06  E(vib)   ...       0.00 
freq.    3155.04  E(vib)   ...       0.00 
freq.    3157.51  E(vib)   ...       0.00 
freq.    3158.31  E(vib)   ...       0.00 
freq.    3159.99  E(vib)   ...       0.00 
freq.    3165.17  E(vib)   ...       0.00 
freq.    3165.90  E(vib)   ...       0.00 
freq.    3166.36  E(vib)   ...       0.00 
freq.    3175.89  E(vib)   ...       0.00 
freq.    3180.28  E(vib)   ...       0.00 
freq.    3182.36  E(vib)   ...       0.00 
freq.    3183.00  E(vib)   ...       0.00 
freq.    3185.74  E(vib)   ...       0.00 
freq.    3186.13  E(vib)   ...       0.00 
freq.    3187.66  E(vib)   ...       0.00 
freq.    3189.15  E(vib)   ...       0.00 
freq.    3190.30  E(vib)   ...       0.00 
freq.    3190.70  E(vib)   ...       0.00 
freq.    3193.32  E(vib)   ...       0.00 
freq.    3199.01  E(vib)   ...       0.00 

------------
INNER ENERGY
------------

The inner energy is: U= E(el) + E(ZPE) + E(vib) + E(rot) + E(trans)
    E(el)   - is the total energy from the electronic structure calculation
              = E(kin-el) + E(nuc-el) + E(el-el) + E(nuc-nuc)
    E(ZPE)  - the the zero temperature vibrational energy from the frequency calculation
    E(vib)  - the the finite temperature correction to E(ZPE) due to population
              of excited vibrational states
    E(rot)  - is the rotational thermal energy
    E(trans)- is the translational thermal energy

Summary of contributions to the inner energy U:
Electronic energy                ...  -3235.53005979 Eh
Zero point energy                ...      0.55013259 Eh     345.21 kcal/mol
Thermal vibrational correction   ...      0.03690987 Eh      23.16 kcal/mol
Thermal rotational correction    ...      0.00141627 Eh       0.89 kcal/mol
Thermal translational correction ...      0.00141627 Eh       0.89 kcal/mol
-----------------------------------------------------------------------
Total thermal energy                  -3234.94018479 Eh


Summary of corrections to the electronic energy:
(perhaps to be used in another calculation)
Total thermal correction                  0.03974241 Eh      24.94 kcal/mol
Non-thermal (ZPE) correction              0.55013259 Eh     345.21 kcal/mol
-----------------------------------------------------------------------
Total correction                          0.58987500 Eh     370.15 kcal/mol


--------
ENTHALPY
--------

The enthalpy is H = U + kB*T
                kB is Boltzmann's constant
Total free energy                 ...  -3234.94018479 Eh 
Thermal Enthalpy correction       ...      0.00094421 Eh       0.59 kcal/mol
-----------------------------------------------------------------------
Total Enthalpy                    ...  -3234.93924058 Eh


Note: Only C1 symmetry has been detected, increase convergence thresholds 
      if your molecule has a higher symmetry. Symmetry factor of 1.0 is   
      used for the rotational entropy correction. 
 

Note: Rotational entropy computed according to Herzberg 
Infrared and Raman Spectra, Chapter V,1, Van Nostrand Reinhold, 1945 
Point Group:  C1, Symmetry Number:   1  
Rotational constants in cm-1:     0.003756     0.003741     0.003097 

Vibrational entropy computed according to the QRRHO of S. Grimme
Chem.Eur.J. 2012 18 9955


-------
ENTROPY
-------

The entropy contributions are T*S = T*(S(el)+S(vib)+S(rot)+S(trans))
     S(el)   - electronic entropy
     S(vib)  - vibrational entropy
     S(rot)  - rotational entropy
     S(trans)- translational entropy
The entropies will be listed as mutliplied by the temperature to get
units of energy

Electronic entropy                ...      0.00000000 Eh      0.00 kcal/mol
Vibrational entropy               ...      0.06671835 Eh     41.87 kcal/mol
Rotational entropy                ...      0.01751277 Eh     10.99 kcal/mol
Translational entropy             ...      0.02123654 Eh     13.33 kcal/mol
-----------------------------------------------------------------------
Final entropy term                ...      0.10546766 Eh     66.18 kcal/mol

In case the symmetry of your molecule has not been determined correctly
or in case you have a reason to use a different symmetry number we print 
out the resulting rotational entropy values for sn=1,12 :
 --------------------------------------------------------
|  sn= 1 | S(rot)=       0.01751277 Eh     10.99 kcal/mol|
|  sn= 2 | S(rot)=       0.01685832 Eh     10.58 kcal/mol|
|  sn= 3 | S(rot)=       0.01647548 Eh     10.34 kcal/mol|
|  sn= 4 | S(rot)=       0.01620386 Eh     10.17 kcal/mol|
|  sn= 5 | S(rot)=       0.01599317 Eh     10.04 kcal/mol|
|  sn= 6 | S(rot)=       0.01582103 Eh      9.93 kcal/mol|
|  sn= 7 | S(rot)=       0.01567548 Eh      9.84 kcal/mol|
|  sn= 8 | S(rot)=       0.01554940 Eh      9.76 kcal/mol|
|  sn= 9 | S(rot)=       0.01543820 Eh      9.69 kcal/mol|
|  sn=10 | S(rot)=       0.01533872 Eh      9.63 kcal/mol|
|  sn=11 | S(rot)=       0.01524873 Eh      9.57 kcal/mol|
|  sn=12 | S(rot)=       0.01516657 Eh      9.52 kcal/mol|
 --------------------------------------------------------


-------------------
GIBBS FREE ENERGY
-------------------

The Gibbs free energy is G = H - T*S

Total enthalpy                    ...  -3234.93924058 Eh 
Total entropy correction          ...     -0.10546766 Eh    -66.18 kcal/mol
-----------------------------------------------------------------------
Final Gibbs free energy         ...  -3235.04470824 Eh

For completeness - the Gibbs free energy minus the electronic energy
G-E(el)                           ...      0.48535154 Eh    304.56 kcal/mol

--------------------------------------------------------------------------
WARNING: No preset parameters were found for the device that Open MPI
detected:

  Local host:            eu-g9-019-3
  Device name:           mlx5_0
  Device vendor ID:      0x02c9
  Device vendor part ID: 4123

Default device parameters will be used, which may result in lower
performance.  You can edit any of the files specified by the
btl_openib_device_param_files MCA parameter to set values for your
device.

NOTE: You can turn off this warning by setting the MCA parameter
      btl_openib_warn_no_device_params_found to 0.
--------------------------------------------------------------------------
--------------------------------------------------------------------------
WARNING: There is at least non-excluded one OpenFabrics device found,
but there are no active ports detected (or Open MPI was unable to use
them).  This is most certainly not what you wanted.  Check your
cables, subnet manager configuration, etc.  The openib BTL will be
ignored for this job.

  Local host: eu-g9-019-3
--------------------------------------------------------------------------

Timings for individual modules:

Sum of individual times         ...    25209.236 sec (= 420.154 min)
GTO integral calculation        ...       39.963 sec (=   0.666 min)   0.2 %
SCF iterations                  ...     5158.440 sec (=  85.974 min)  20.5 %
SCF Gradient evaluation         ...     1618.788 sec (=  26.980 min)   6.4 %
Geometry relaxation             ...       16.689 sec (=   0.278 min)   0.1 %
Analytical frequency calculation...    18375.355 sec (= 306.256 min)  72.9 %
                             ****ORCA TERMINATED NORMALLY****
TOTAL RUN TIME: 0 days 7 hours 0 minutes 31 seconds 965 msec
