
                                 *****************
                                 * O   R   C   A *
                                 *****************

           --- An Ab Initio, DFT and Semiempirical electronic structure package ---

                  #######################################################
                  #                        -***-                        #
                  #          Department of theory and spectroscopy      #
                  #               Directorship: Frank Neese             #
                  #        Max Planck Institute fuer Kohlenforschung    #
                  #                Kaiser Wilhelm Platz 1               #
                  #                 D-45470 Muelheim/Ruhr               #
                  #                      Germany                        #
                  #                                                     #
                  #                  All rights reserved                #
                  #                        -***-                        #
                  #######################################################


                         Program Version 4.2.0 -  RELEASE  -


 With contributions from (in alphabetic order):
   Daniel Aravena         : Magnetic Suceptibility
   Michael Atanasov       : Ab Initio Ligand Field Theory (pilot matlab implementation)
   Alexander A. Auer      : GIAO ZORA, VPT2
   Ute Becker             : Parallelization
   Giovanni Bistoni       : ED, misc. LED, open-shell LED, HFLED
   Martin Brehm           : Molecular dynamics
   Dmytro Bykov           : SCF Hessian
   Vijay G. Chilkuri      : MRCI spin determinant printing, contributions to CSF-ICE
   Dipayan Datta          : RHF DLPNO-CCSD density
   Achintya Kumar Dutta   : EOM-CC, STEOM-CC
   Dmitry Ganyushin       : Spin-Orbit,Spin-Spin,Magnetic field MRCI
   Miquel Garcia          : C-PCM Hessian, Gaussian charge scheme
   Yang Guo               : DLPNO-NEVPT2, CIM, IAO-localization
   Andreas Hansen         : Spin unrestricted coupled pair/coupled cluster methods
   Benjamin Helmich-Paris : CASSCF linear response (MC-RPA)
   Lee Huntington         : MR-EOM, pCC
   Robert Izsak           : Overlap fitted RIJCOSX, COSX-SCS-MP3, EOM
   Christian Kollmar      : KDIIS, OOCD, Brueckner-CCSD(T), CCSD density
   Simone Kossmann        : Meta GGA functionals, TD-DFT gradient, OOMP2, MP2 Hessian
   Martin Krupicka        : AUTO-CI
   Lucas Lang             : DCDCAS
   Dagmar Lenk            : GEPOL surface, SMD
   Dimitrios Liakos       : Extrapolation schemes; Compound Job, initial MDCI parallelization
   Dimitrios Manganas     : Further ROCIS development; embedding schemes
   Dimitrios Pantazis     : SARC Basis sets
   Taras Petrenko         : DFT Hessian,TD-DFT gradient, ASA, ECA, R-Raman, ABS, FL, XAS/XES, NRVS
   Peter Pinski           : DLPNO-MP2, DLPNO-MP2 Gradient
   Christoph Reimann      : Effective Core Potentials
   Marius Retegan         : Local ZFS, SOC
   Christoph Riplinger    : Optimizer, TS searches, QM/MM, DLPNO-CCSD(T), (RO)-DLPNO pert. Triples
   Tobias Risthaus        : Range-separated hybrids, TD-DFT gradient, RPA, STAB
   Michael Roemelt        : Original ROCIS implementation
   Masaaki Saitow         : Open-shell DLPNO-CCSD energy and density
   Barbara Sandhoefer     : DKH picture change effects
   Avijit Sen             : IP-ROCIS
   Kantharuban Sivalingam : CASSCF convergence, NEVPT2, FIC-MRCI
   Bernardo de Souza      : ESD, SOC TD-DFT
   Georgi Stoychev        : AutoAux, RI-MP2 NMR
   Willem Van den Heuvel  : Paramagnetic NMR
   Boris Wezisla          : Elementary symmetry handling
   Frank Wennmohs         : Technical directorship


 We gratefully acknowledge several colleagues who have allowed us to
 interface, adapt or use parts of their codes:
   Stefan Grimme, W. Hujo, H. Kruse,             : VdW corrections, initial TS optimization,
                  C. Bannwarth                     DFT functionals, gCP, sTDA/sTD-DF
   Ed Valeev, F. Pavosevic, A. Kumar             : LibInt (2-el integral package), F12 methods
   Garnet Chan, S. Sharma, J. Yang, R. Olivares  : DMRG
   Ulf Ekstrom                                   : XCFun DFT Library
   Mihaly Kallay                                 : mrcc  (arbitrary order and MRCC methods)
   Andreas Klamt, Michael Diedenhofen            : otool_cosmo (COSMO solvation model)
   Jiri Pittner, Ondrej Demel                    : Mk-CCSD
   Frank Weinhold                                : gennbo (NPA and NBO analysis)
   Christopher J. Cramer and Donald G. Truhlar   : smd solvation model
   Lars Goerigk                                  : TD-DFT with DH, B97 family of functionals
   V. Asgeirsson, H. Jonsson                     : NEB implementation
   FAccTs GmbH                                   : IRC, NEB, NEB-TS, Multilevel, MM, QM/MM, CI optimization
   S Lehtola, MJT Oliveira, MAL Marques          : LibXC Library


 Your calculation uses the libint2 library for the computation of 2-el integrals
 For citations please refer to: http://libint.valeyev.net

 Your ORCA version has been built with support for libXC version: 4.2.3
 For citations please refer to: https://tddft.org/programs/libxc/

 This ORCA versions uses:
   CBLAS   interface :  Fast vector & matrix operations
   LAPACKE interface :  Fast linear algebra routines
   SCALAPACK package :  Parallel linear algebra routines




***************************************
The coordinates will be read from file: xtbopt.xyz
***************************************


Your calculation utilizes the atom-pairwise dispersion correction
with the Becke-Johnson damping scheme (D3BJ)
Cite in your paper:
S.Grimme, S.Ehrlich, L.Goerigk, J Comput Chem, (2011), 32, 1456–1465 
S.Grimme, J.Antony, S.Ehrlich and H.Krieg, J.Chem.Phys., 132, (2010), 154104 
   

----- Orbital basis set information -----
Your calculation utilizes the basis: def2-SVP
   F. Weigend and R. Ahlrichs, Phys. Chem. Chem. Phys. 7, 3297 (2005).

----- AuxJ basis set information -----
Your calculation utilizes the auxiliary basis: def2/J
   F. Weigend, Phys. Chem. Chem. Phys. 8, 1057 (2006).

================================================================================
                                        WARNINGS
                       Please study these warnings very carefully!
================================================================================


WARNING: Split-RI-J cannot be used together with RIJONX
  ===> : Split-RI-J will be disabled

WARNING: Geometry Optimization
  ===> : Switching off AutoStart
         For restart on a previous wavefunction, please use MOREAD

INFO   : the flag for use of LIBINT has been found!

================================================================================
                                       INPUT FILE
================================================================================
NAME = TEP_Ni.inp
|  1> ! PBE0 def2-SVP RIJDX D3BJ opt freq
|  2> %pal nprocs 10 end
|  3> %maxcore 3036
|  4> 
|  5> %basis
|  6>   newgto Ni "def2-TZVP" end
|  7> end
|  8> 
|  9> *xyzfile 0 1 xtbopt.xyz
| 10> 
| 11>                          ****END OF INPUT****
================================================================================

                       *****************************
                       * Geometry Optimization Run *
                       *****************************

Geometry optimization settings:
Update method            Update   .... BFGS
Choice of coordinates    CoordSys .... Z-matrix Internals
Initial Hessian          InHess   .... Almoef's Model

Convergence Tolerances:
Energy Change            TolE     ....  5.0000e-06 Eh
Max. Gradient            TolMAXG  ....  3.0000e-04 Eh/bohr
RMS Gradient             TolRMSG  ....  1.0000e-04 Eh/bohr
Max. Displacement        TolMAXD  ....  4.0000e-03 bohr
RMS Displacement         TolRMSD  ....  2.0000e-03 bohr
Strict Convergence                ....  False
------------------------------------------------------------------------------
                        ORCA OPTIMIZATION COORDINATE SETUP
------------------------------------------------------------------------------

The optimization will be done in new redundant internal coordinates
Making redundant internal coordinates   ...  (new redundants) done
Evaluating the initial hessian          ...  (Almloef) done
Evaluating the coordinates              ...  done
Calculating the B-matrix                .... done
Calculating the G-matrix                .... done
Diagonalizing the G-matrix              .... done
Small eigenvalue found = 6.092e-03
Small eigenvalue found = 1.009e-02
Small eigenvalue found = 1.598e-02
Small eigenvalue found = 2.157e-02
Small eigenvalue found = 2.565e-02
Small eigenvalue found = 2.595e-02
The first mode is                       ....  133
The number of degrees of freedom        ....  144

    -----------------------------------------------------------------
                    Redundant Internal Coordinates


    -----------------------------------------------------------------
         Definition                    Initial Value    Approx d2E/dq
    -----------------------------------------------------------------
      1. B(C   1,O   0)                  1.1413         1.395479   
      2. B(Ni  2,C   1)                  1.8003         1.400423   
      3. B(C   3,Ni  2)                  1.8030         1.386386   
      4. B(O   4,C   3)                  1.1408         1.397663   
      5. B(P   5,Ni  2)                  2.4303         0.465120   
      6. B(C   6,P   5)                  1.8647         0.367159   
      7. B(C   7,C   6)                  1.5403         0.359657   
      8. B(C   8,C   7)                  1.5249         0.380700   
      9. B(C   9,C   7)                  1.5342         0.367919   
     10. B(C  10,C   7)                  1.5266         0.378324   
     11. B(C  11,P   5)                  1.9090         0.312064   
     12. B(C  12,C  11)                  1.5301         0.373477   
     13. B(C  13,C  11)                  1.5269         0.377854   
     14. B(C  14,C  11)                  1.5326         0.370062   
     15. B(C  15,P   5)                  1.9095         0.311475   
     16. B(C  16,C  15)                  1.5314         0.371685   
     17. B(C  17,C  15)                  1.5324         0.370340   
     18. B(C  18,C  15)                  1.5281         0.376171   
     19. B(C  19,Ni  2)                  1.8034         1.384638   
     20. B(O  20,C  19)                  1.1412         1.395585   
     21. B(H  21,C   6)                  1.0892         0.361196   
     22. B(H  22,C   6)                  1.0907         0.359110   
     23. B(H  23,C   8)                  1.0871         0.363912   
     24. B(H  24,C   8)                  1.0905         0.359477   
     25. B(H  25,C   8)                  1.0879         0.362950   
     26. B(H  26,C   9)                  1.0883         0.362377   
     27. B(H  27,C   9)                  1.0875         0.363460   
     28. B(H  28,C   9)                  1.0884         0.362221   
     29. B(H  29,C  10)                  1.0879         0.362827   
     30. B(H  30,C  10)                  1.0888         0.361675   
     31. B(H  31,C  10)                  1.0876         0.363285   
     32. B(H  32,C  12)                  1.0848         0.367073   
     33. B(H  33,C  12)                  1.0911         0.358661   
     34. B(H  34,C  12)                  1.0894         0.360914   
     35. B(H  35,C  13)                  1.0865         0.364703   
     36. B(H  36,C  13)                  1.0900         0.360102   
     37. B(H  37,C  13)                  1.0880         0.362748   
     38. B(H  38,C  14)                  1.0888         0.361728   
     39. B(H  39,C  14)                  1.0867         0.364476   
     40. B(H  40,C  14)                  1.0891         0.361308   
     41. B(H  41,C  16)                  1.0876         0.363224   
     42. B(H  42,C  16)                  1.0909         0.358864   
     43. B(H  43,C  16)                  1.0892         0.361219   
     44. B(H  44,C  17)                  1.0875         0.363435   
     45. B(H  45,C  17)                  1.0895         0.360719   
     46. B(H  46,C  17)                  1.0842         0.367883   
     47. B(H  47,C  18)                  1.0887         0.361848   
     48. B(H  48,C  18)                  1.0870         0.364125   
     49. B(H  49,C  18)                  1.0896         0.360589   
     50. A(O   0,C   1,Ni  2)          170.3389         0.660094   
     51. A(C   1,Ni  2,C  19)          110.0927         0.752871   
     52. A(P   5,Ni  2,C  19)          107.6171         0.637983   
     53. A(C   3,Ni  2,P   5)          111.3783         0.638140   
     54. A(C   3,Ni  2,C  19)          108.1530         0.751359   
     55. A(C   1,Ni  2,P   5)          108.7601         0.639393   
     56. A(C   1,Ni  2,C   3)          110.7864         0.753061   
     57. A(Ni  2,C   3,O   4)          166.6154         0.658995   
     58. A(Ni  2,P   5,C  15)          110.5257         0.456936   
     59. A(Ni  2,P   5,C  11)          109.2121         0.457093   
     60. A(Ni  2,P   5,C   6)          124.8573         0.470891   
     61. A(C   6,P   5,C  11)          100.9848         0.397851   
     62. A(C  11,P   5,C  15)          109.5388         0.386565   
     63. A(C   6,P   5,C  15)          100.7132         0.397719   
     64. A(P   5,C   6,H  22)          106.6574         0.343155   
     65. A(P   5,C   6,C   7)          120.4766         0.382959   
     66. A(P   5,C   6,H  21)          106.7190         0.343488   
     67. A(H  21,C   6,H  22)          107.2892         0.290853   
     68. A(C   7,C   6,H  21)          106.9667         0.322466   
     69. A(C   7,C   6,H  22)          108.1018         0.322160   
     70. A(C   9,C   7,C  10)          108.9613         0.363189   
     71. A(C   6,C   7,C  10)          109.9215         0.361783   
     72. A(C   8,C   7,C   9)          109.0803         0.363577   
     73. A(C   6,C   7,C   9)          107.4157         0.360066   
     74. A(C   8,C   7,C  10)          109.5878         0.365316   
     75. A(C   6,C   7,C   8)          111.8078         0.362169   
     76. A(C   7,C   8,H  25)          110.3884         0.325749   
     77. A(H  24,C   8,H  25)          108.2586         0.291121   
     78. A(H  23,C   8,H  25)          108.3007         0.291682   
     79. A(H  23,C   8,H  24)          108.9234         0.291242   
     80. A(C   7,C   8,H  24)          109.8278         0.325235   
     81. A(C   7,C   8,H  23)          111.0739         0.325891   
     82. A(H  26,C   9,H  28)          108.3603         0.291396   
     83. A(C   7,C   9,H  28)          110.9817         0.323820   
     84. A(H  26,C   9,H  27)          108.1343         0.291553   
     85. A(C   7,C   9,H  27)          110.1160         0.324001   
     86. A(C   7,C   9,H  26)          110.9542         0.323842   
     87. A(H  27,C   9,H  28)          108.1973         0.291533   
     88. A(C   7,C  10,H  31)          110.7155         0.325463   
     89. A(H  30,C  10,H  31)          108.2232         0.291442   
     90. A(H  29,C  10,H  31)          108.4618         0.291588   
     91. A(H  29,C  10,H  30)          108.8542         0.291384   
     92. A(C   7,C  10,H  30)          110.9040         0.325226   
     93. A(C   7,C  10,H  29)          109.6201         0.325396   
     94. A(C  13,C  11,C  14)          109.0494         0.363472   
     95. A(C  12,C  11,C  14)          107.1764         0.362749   
     96. A(P   5,C  11,C  14)          106.4798         0.374173   
     97. A(C  12,C  11,C  13)          109.2246         0.364043   
     98. A(P   5,C  11,C  13)          115.2868         0.375521   
     99. A(P   5,C  11,C  12)          109.3048         0.374767   
    100. A(H  32,C  12,H  34)          107.8031         0.291821   
    101. A(C  11,C  12,H  34)          109.7866         0.324425   
    102. A(H  32,C  12,H  33)          108.5487         0.291534   
    103. A(C  11,C  12,H  33)          110.3142         0.324092   
    104. A(C  11,C  12,H  32)          112.2447         0.325329   
    105. A(H  33,C  12,H  34)          108.0183         0.290760   
    106. A(C  11,C  13,H  37)          112.1590         0.325318   
    107. A(H  36,C  13,H  37)          107.5961         0.291175   
    108. A(H  35,C  13,H  37)          109.0792         0.291756   
    109. A(H  35,C  13,H  36)          107.5153         0.291421   
    110. A(C  11,C  13,H  36)          108.8161         0.324927   
    111. A(C  11,C  13,H  35)          111.4923         0.325605   
    112. A(H  39,C  14,H  40)          107.5619         0.291545   
    113. A(H  38,C  14,H  40)          108.0158         0.291199   
    114. A(C  11,C  14,H  40)          109.7216         0.323994   
    115. A(H  38,C  14,H  39)          108.6544         0.291599   
    116. A(C  11,C  14,H  39)          112.3253         0.324459   
    117. A(C  11,C  14,H  38)          110.4269         0.324056   
    118. A(C  17,C  15,C  18)          108.7587         0.363242   
    119. A(C  16,C  15,C  18)          108.2432         0.363467   
    120. A(P   5,C  15,C  18)          109.6159         0.375110   
    121. A(C  16,C  15,C  17)          108.2102         0.362498   
    122. A(P   5,C  15,C  17)          116.6971         0.374100   
    123. A(P   5,C  15,C  16)          104.9845         0.374334   
    124. A(H  42,C  16,H  43)          108.3298         0.290824   
    125. A(H  41,C  16,H  43)          108.2114         0.291377   
    126. A(C  15,C  16,H  43)          110.1498         0.324214   
    127. A(H  41,C  16,H  42)          108.4964         0.291077   
    128. A(C  15,C  16,H  42)          110.4372         0.323866   
    129. A(C  15,C  16,H  41)          111.1338         0.324509   
    130. A(H  44,C  17,H  46)          108.6764         0.292242   
    131. A(C  15,C  17,H  46)          112.8528         0.324996   
    132. A(H  44,C  17,H  45)          106.8429         0.291340   
    133. A(C  15,C  17,H  45)          108.3294         0.323947   
    134. A(C  15,C  17,H  44)          111.9796         0.324347   
    135. A(H  45,C  17,H  46)          107.9070         0.291898   
    136. A(H  48,C  18,H  49)          107.7914         0.291410   
    137. A(H  47,C  18,H  49)          107.8745         0.291123   
    138. A(C  15,C  18,H  49)          109.7963         0.324760   
    139. A(H  47,C  18,H  48)          109.1519         0.291570   
    140. A(C  15,C  18,H  48)          111.4608         0.325282   
    141. A(C  15,C  18,H  47)          110.6549         0.324947   
    142. A(Ni  2,C  19,O  20)          168.6566         0.658640   
    143. D(P   5,Ni  2,C   1,O   0)   -178.7040         0.009016   
    144. D(C   3,Ni  2,C   1,O   0)     58.5642         0.009016   
    145. D(C  19,Ni  2,C   1,O   0)    -61.0199         0.009016   
    146. D(O   4,C   3,Ni  2,C  19)     51.6858         0.008861   
    147. D(O   4,C   3,Ni  2,P   5)    169.7456         0.008861   
    148. D(O   4,C   3,Ni  2,C   1)    -69.0556         0.008861   
    149. D(C   6,P   5,Ni  2,C   1)    -79.2489         0.001801   
    150. D(C  11,P   5,Ni  2,C  19)    -79.2425         0.001801   
    151. D(C  15,P   5,Ni  2,C   1)    160.5747         0.001801   
    152. D(C  11,P   5,Ni  2,C   3)    162.3755         0.001801   
    153. D(C   6,P   5,Ni  2,C  19)    161.5075         0.001801   
    154. D(C   6,P   5,Ni  2,C   3)     43.1255         0.001801   
    155. D(C  15,P   5,Ni  2,C   3)    -77.0508         0.001801   
    156. D(C  15,P   5,Ni  2,C  19)     41.3311         0.001801   
    157. D(C  11,P   5,Ni  2,C   1)     40.0010         0.001801   
    158. D(H  22,C   6,P   5,Ni  2)    123.3976         0.003460   
    159. D(H  22,C   6,P   5,C  15)   -112.0858         0.003460   
    160. D(H  22,C   6,P   5,C  11)      0.4620         0.003460   
    161. D(C   7,C   6,P   5,C  15)    124.3832         0.003460   
    162. D(H  21,C   6,P   5,Ni  2)   -122.1599         0.003460   
    163. D(H  21,C   6,P   5,C  15)      2.3566         0.003460   
    164. D(H  21,C   6,P   5,C  11)    114.9044         0.003460   
    165. D(C   7,C   6,P   5,C  11)   -123.0690         0.003460   
    166. D(C   7,C   6,P   5,Ni  2)     -0.1334         0.003460   
    167. D(C  10,C   7,C   6,P   5)    -68.5411         0.010379   
    168. D(C   9,C   7,C   6,P   5)    173.0409         0.010379   
    169. D(C   8,C   7,C   6,H  22)    -69.4368         0.010379   
    170. D(C   9,C   7,C   6,H  22)     50.2012         0.010379   
    171. D(C   8,C   7,C   6,H  21)    175.3093         0.010379   
    172. D(C   8,C   7,C   6,P   5)     53.4029         0.010379   
    173. D(C   9,C   7,C   6,H  21)    -65.0527         0.010379   
    174. D(C  10,C   7,C   6,H  22)    168.6192         0.010379   
    175. D(C  10,C   7,C   6,H  21)     53.3653         0.010379   
    176. D(H  25,C   8,C   7,C  10)    -56.8129         0.011549   
    177. D(H  25,C   8,C   7,C   9)     62.3978         0.011549   
    178. D(H  25,C   8,C   7,C   6)   -178.9484         0.011549   
    179. D(H  24,C   8,C   7,C  10)     62.4832         0.011549   
    180. D(H  24,C   8,C   7,C   9)   -178.3061         0.011549   
    181. D(H  24,C   8,C   7,C   6)    -59.6523         0.011549   
    182. D(H  23,C   8,C   7,C  10)   -176.9599         0.011549   
    183. D(H  23,C   8,C   7,C   9)    -57.7492         0.011549   
    184. D(H  23,C   8,C   7,C   6)     60.9046         0.011549   
    185. D(H  28,C   9,C   7,C  10)    -61.4999         0.010829   
    186. D(H  28,C   9,C   7,C   8)    178.9007         0.010829   
    187. D(H  28,C   9,C   7,C   6)     57.5364         0.010829   
    188. D(H  27,C   9,C   7,C  10)     58.2792         0.010829   
    189. D(H  27,C   9,C   7,C   8)    -61.3202         0.010829   
    190. D(H  27,C   9,C   7,C   6)    177.3155         0.010829   
    191. D(H  26,C   9,C   7,C  10)    177.9620         0.010829   
    192. D(H  26,C   9,C   7,C   8)     58.3626         0.010829   
    193. D(H  26,C   9,C   7,C   6)    -63.0017         0.010829   
    194. D(H  31,C  10,C   7,C   9)    -65.4850         0.011413   
    195. D(H  31,C  10,C   7,C   6)    177.0547         0.011413   
    196. D(H  30,C  10,C   7,C   9)     54.6695         0.011413   
    197. D(H  30,C  10,C   7,C   8)    173.9535         0.011413   
    198. D(H  30,C  10,C   7,C   6)    -62.7908         0.011413   
    199. D(H  29,C  10,C   7,C   9)    174.8952         0.011413   
    200. D(H  31,C  10,C   7,C   8)     53.7990         0.011413   
    201. D(H  29,C  10,C   7,C   8)    -65.8208         0.011413   
    202. D(H  29,C  10,C   7,C   6)     57.4349         0.011413   
    203. D(C  12,C  11,P   5,C  15)    -78.6590         0.002906   
    204. D(C  12,C  11,P   5,C   6)    175.6875         0.002906   
    205. D(C  12,C  11,P   5,Ni  2)     42.5165         0.002906   
    206. D(C  14,C  11,P   5,C  15)    165.8772         0.002906   
    207. D(C  14,C  11,P   5,C   6)     60.2238         0.002906   
    208. D(C  14,C  11,P   5,Ni  2)    -72.9472         0.002906   
    209. D(C  13,C  11,P   5,C  15)     44.8002         0.002906   
    210. D(C  13,C  11,P   5,C   6)    -60.8532         0.002906   
    211. D(C  13,C  11,P   5,Ni  2)    165.9757         0.002906   
    212. D(H  34,C  12,C  11,C  14)    -52.1951         0.011138   
    213. D(H  34,C  12,C  11,C  13)     65.8122         0.011138   
    214. D(H  34,C  12,C  11,P   5)   -167.2119         0.011138   
    215. D(H  33,C  12,C  11,C  14)     66.7328         0.011138   
    216. D(H  33,C  12,C  11,C  13)   -175.2599         0.011138   
    217. D(H  33,C  12,C  11,P   5)    -48.2840         0.011138   
    218. D(H  32,C  12,C  11,C  14)   -172.0761         0.011138   
    219. D(H  32,C  12,C  11,C  13)    -54.0688         0.011138   
    220. D(H  32,C  12,C  11,P   5)     72.9071         0.011138   
    221. D(H  37,C  13,C  11,C  12)    176.1891         0.011386   
    222. D(H  37,C  13,C  11,P   5)     52.6875         0.011386   
    223. D(H  36,C  13,C  11,C  14)     51.9368         0.011386   
    224. D(H  36,C  13,C  11,C  12)    -64.8893         0.011386   
    225. D(H  36,C  13,C  11,P   5)    171.6090         0.011386   
    226. D(H  35,C  13,C  11,C  14)    170.3535         0.011386   
    227. D(H  35,C  13,C  11,C  12)     53.5274         0.011386   
    228. D(H  37,C  13,C  11,C  14)    -66.9848         0.011386   
    229. D(H  35,C  13,C  11,P   5)    -69.9742         0.011386   
    230. D(H  40,C  14,C  11,C  13)    -67.7532         0.010947   
    231. D(H  40,C  14,C  11,P   5)    167.2588         0.010947   
    232. D(H  39,C  14,C  11,C  13)     51.8320         0.010947   
    233. D(H  39,C  14,C  11,C  12)    169.9533         0.010947   
    234. D(H  39,C  14,C  11,P   5)    -73.1559         0.010947   
    235. D(H  38,C  14,C  11,C  13)    173.2929         0.010947   
    236. D(H  40,C  14,C  11,C  12)     50.3680         0.010947   
    237. D(H  38,C  14,C  11,C  12)    -68.5858         0.010947   
    238. D(H  38,C  14,C  11,P   5)     48.3050         0.010947   
    239. D(C  18,C  15,P   5,C  11)     53.7098         0.002901   
    240. D(C  18,C  15,P   5,C   6)    159.5478         0.002901   
    241. D(C  18,C  15,P   5,Ni  2)    -66.6686         0.002901   
    242. D(C  17,C  15,P   5,C  11)    -70.4402         0.002901   
    243. D(C  17,C  15,P   5,C   6)     35.3978         0.002901   
    244. D(C  17,C  15,P   5,Ni  2)    169.1814         0.002901   
    245. D(C  16,C  15,P   5,C  11)    169.7773         0.002901   
    246. D(C  16,C  15,P   5,C   6)    -84.3846         0.002901   
    247. D(C  16,C  15,P   5,Ni  2)     49.3989         0.002901   
    248. D(H  43,C  16,C  15,C  18)    -60.7468         0.011038   
    249. D(H  43,C  16,C  15,C  17)     56.9565         0.011038   
    250. D(H  43,C  16,C  15,P   5)   -177.7570         0.011038   
    251. D(H  42,C  16,C  15,C  18)     58.8717         0.011038   
    252. D(H  42,C  16,C  15,C  17)    176.5750         0.011038   
    253. D(H  42,C  16,C  15,P   5)    -58.1385         0.011038   
    254. D(H  41,C  16,C  15,C  18)    179.3365         0.011038   
    255. D(H  41,C  16,C  15,C  17)    -62.9602         0.011038   
    256. D(H  41,C  16,C  15,P   5)     62.3262         0.011038   
    257. D(H  46,C  17,C  15,C  16)    164.4117         0.010963   
    258. D(H  46,C  17,C  15,P   5)     46.3703         0.010963   
    259. D(H  45,C  17,C  15,C  18)     41.1981         0.010963   
    260. D(H  45,C  17,C  15,C  16)    -76.1744         0.010963   
    261. D(H  45,C  17,C  15,P   5)    165.7842         0.010963   
    262. D(H  44,C  17,C  15,C  18)    158.7706         0.010963   
    263. D(H  44,C  17,C  15,C  16)     41.3981         0.010963   
    264. D(H  46,C  17,C  15,C  18)    -78.2159         0.010963   
    265. D(H  44,C  17,C  15,P   5)    -76.6433         0.010963   
    266. D(H  48,C  18,C  15,P   5)    -79.6922         0.011290   
    267. D(H  47,C  18,C  15,C  17)    170.6350         0.011290   
    268. D(H  47,C  18,C  15,C  16)    -72.0136         0.011290   
    269. D(H  47,C  18,C  15,P   5)     41.9710         0.011290   
    270. D(H  49,C  18,C  15,C  17)    -70.3978         0.011290   
    271. D(H  49,C  18,C  15,C  16)     46.9537         0.011290   
    272. D(H  49,C  18,C  15,P   5)    160.9383         0.011290   
    273. D(H  48,C  18,C  15,C  17)     48.9718         0.011290   
    274. D(H  48,C  18,C  15,C  16)    166.3232         0.011290   
    275. D(O  20,C  19,Ni  2,P   5)    177.2944         0.008842   
    276. D(O  20,C  19,Ni  2,C   3)    -62.2673         0.008842   
    277. D(O  20,C  19,Ni  2,C   1)     58.9051         0.008842   
    -----------------------------------------------------------------

Number of atoms                         .... 50
Number of degrees of freedom            .... 277

         *************************************************************
         *                GEOMETRY OPTIMIZATION CYCLE   1            *
         *************************************************************
---------------------------------
CARTESIAN COORDINATES (ANGSTROEM)
---------------------------------
  O      4.552058    2.369398    0.024420
  C      4.238640    1.272024    0.028330
  Ni     3.568263   -0.381397    0.268887
  C      1.771450   -0.371329    0.119509
  O      0.647448   -0.228928    0.253099
  P      4.583662   -1.880058   -1.352693
  C      4.077993   -2.014353   -3.142505
  C      2.937446   -1.141800   -3.699673
  C      3.167205    0.338938   -3.417160
  C      2.890668   -1.361436   -5.217302
  C      1.605659   -1.577719   -3.094110
  C      6.435872   -1.452982   -1.529060
  C      7.028755   -1.190925   -0.143082
  C      7.281509   -2.501859   -2.247516
  C      6.505875   -0.134903   -2.307869
  C      4.397491   -3.696465   -0.793988
  C      2.916660   -3.850675   -0.435538
  C      4.755688   -4.773550   -1.823420
  C      5.222744   -3.931410    0.470485
  C      3.991954   -0.988504    1.913302
  O      4.148574   -1.190181    3.025608
  H      3.795356   -3.052600   -3.311193
  H      4.972899   -1.821549   -3.735551
  H      4.084805    0.688171   -3.883964
  H      3.232549    0.504436   -2.341302
  H      2.340540    0.931204   -3.803520
  H      3.813396   -1.027083   -5.687563
  H      2.066778   -0.799769   -5.651271
  H      2.746778   -2.413881   -5.454521
  H      1.658520   -1.511753   -2.009453
  H      1.369151   -2.603251   -3.373143
  H      0.797859   -0.936430   -3.439202
  H      7.146701   -2.102964    0.432260
  H      6.391132   -0.506351    0.418409
  H      8.011144   -0.730871   -0.243191
  H      7.398306   -3.399182   -1.646065
  H      8.276365   -2.092069   -2.421957
  H      6.863595   -2.773795   -3.214550
  H      5.818504    0.594628   -1.882743
  H      6.268274   -0.264195   -3.360377
  H      7.512871    0.275317   -2.246293
  H      2.283377   -3.680810   -1.303339
  H      2.636743   -3.138402    0.341928
  H      2.723184   -4.856260   -0.064561
  H      3.975942   -4.897118   -2.571326
  H      4.848656   -5.726690   -1.303841
  H      5.694114   -4.576828   -2.329484
  H      5.117552   -3.094465    1.158734
  H      6.275249   -4.071876    0.238076
  H      4.871429   -4.828781    0.979010

----------------------------
CARTESIAN COORDINATES (A.U.)
----------------------------
  NO LB      ZA    FRAG     MASS         X           Y           Z
   0 O     8.0000    0    15.999    8.602143    4.477513    0.046147
   1 C     6.0000    0    12.011    8.009868    2.403776    0.053536
   2 Ni   28.0000    0    58.700    6.743040   -0.720736    0.508123
   3 C     6.0000    0    12.011    3.347554   -0.701710    0.225840
   4 O     8.0000    0    15.999    1.223499   -0.432611    0.478287
   5 P    15.0000    0    30.974    8.661866   -3.552794   -2.556219
   6 C     6.0000    0    12.011    7.706291   -3.806575   -5.938474
   7 C     6.0000    0    12.011    5.550968   -2.157690   -6.991369
   8 C     6.0000    0    12.011    5.985150    0.640501   -6.457496
   9 C     6.0000    0    12.011    5.462571   -2.572742   -9.859272
  10 C     6.0000    0    12.011    3.034255   -2.981457   -5.847021
  11 C     6.0000    0    12.011   12.162035   -2.745738   -2.889505
  12 C     6.0000    0    12.011   13.282421   -2.250521   -0.270386
  13 C     6.0000    0    12.011   13.760057   -4.727827   -4.247190
  14 C     6.0000    0    12.011   12.294322   -0.254930   -4.361241
  15 C     6.0000    0    12.011    8.310053   -6.985306   -1.500421
  16 C     6.0000    0    12.011    5.511689   -7.276721   -0.823048
  17 C     6.0000    0    12.011    8.986948   -9.020703   -3.445765
  18 C     6.0000    0    12.011    9.869555   -7.429288    0.889087
  19 C     6.0000    0    12.011    7.543701   -1.868001    3.615616
  20 O     8.0000    0    15.999    7.839670   -2.249117    5.717570
  21 H     1.0000    0     1.008    7.172184   -5.768579   -6.257248
  22 H     1.0000    0     1.008    9.397418   -3.442229   -7.059169
  23 H     1.0000    0     1.008    7.719162    1.300454   -7.339629
  24 H     1.0000    0     1.008    6.108633    0.953246   -4.424420
  25 H     1.0000    0     1.008    4.422980    1.759720   -7.187611
  26 H     1.0000    0     1.008    7.206273   -1.940905  -10.747936
  27 H     1.0000    0     1.008    3.905644   -1.511344  -10.679354
  28 H     1.0000    0     1.008    5.190658   -4.561574  -10.307551
  29 H     1.0000    0     1.008    3.134148   -2.856800   -3.797316
  30 H     1.0000    0     1.008    2.587320   -4.919432   -6.374316
  31 H     1.0000    0     1.008    1.507735   -1.769596   -6.499149
  32 H     1.0000    0     1.008   13.505307   -3.974025    0.816853
  33 H     1.0000    0     1.008   12.077490   -0.956864    0.790679
  34 H     1.0000    0     1.008   15.138868   -1.381146   -0.459564
  35 H     1.0000    0     1.008   13.980771   -6.423522   -3.110611
  36 H     1.0000    0     1.008   15.640063   -3.953437   -4.576836
  37 H     1.0000    0     1.008   12.970315   -5.241713   -6.074619
  38 H     1.0000    0     1.008   10.995380    1.123684   -3.557870
  39 H     1.0000    0     1.008   11.845321   -0.499257   -6.350192
  40 H     1.0000    0     1.008   14.197269    0.520275   -4.244878
  41 H     1.0000    0     1.008    4.314957   -6.955723   -2.462953
  42 H     1.0000    0     1.008    4.982723   -5.930719    0.646151
  43 H     1.0000    0     1.008    5.146072   -9.177001   -0.122003
  44 H     1.0000    0     1.008    7.513442   -9.254212   -4.859102
  45 H     1.0000    0     1.008    9.162631  -10.821877   -2.463903
  46 H     1.0000    0     1.008   10.760316   -8.648952   -4.402087
  47 H     1.0000    0     1.008    9.670771   -5.847692    2.189690
  48 H     1.0000    0     1.008   11.858502   -7.694730    0.449898
  49 H     1.0000    0     1.008    9.205666   -9.125074    1.850060

--------------------------------
INTERNAL COORDINATES (ANGSTROEM)
--------------------------------
 O      0   0   0     0.000000000000     0.00000000     0.00000000
 C      1   0   0     1.141260640553     0.00000000     0.00000000
 Ni     2   1   0     1.800297921389   170.33885190     0.00000000
 C      3   2   1     1.803040133724   110.78641836    58.56417728
 O      4   3   2     1.140834861628   166.61539828   290.94443865
 P      3   2   1     2.430337677864   108.76009347   181.29604143
 C      6   3   2     1.864715612238   124.85731299   280.75111233
 C      7   6   3     1.540335442342   120.47661338   359.86661023
 C      8   7   6     1.524857303538   111.80783554    53.40287752
 C      8   7   6     1.534152956913   107.41565282   173.04093995
 C      8   7   6     1.526561108256   109.92151269   291.45887925
 C      6   3   2     1.908973473360   109.21207584    40.00104376
 C     12   6   3     1.530071547448   109.30483069    42.51646866
 C     12   6   3     1.526899708947   115.28678558   165.97569949
 C     12   6   3     1.532571813023   106.47980529   287.05275341
 C      6   3   2     1.909487877675   110.52568717   160.57473770
 C     16   6   3     1.531380350979   104.98453432    49.39892053
 C     16   6   3     1.532367031797   116.69711320   169.18140549
 C     16   6   3     1.528114518852   109.61592948   293.33136695
 C      3   2   1     1.803383526031   110.09268856   298.98012380
 O     20   3   2     1.141239958097   168.65663180    58.90514834
 H      7   6   3     1.089172809373   106.71897075   237.84005346
 H      7   6   3     1.090749184657   106.65735045   123.39763434
 H      9   8   7     1.087133707175   111.07387812    60.90460483
 H      9   8   7     1.090471424522   109.82779587   300.34767989
 H      9   8   7     1.087854083557   110.38840784   181.05160868
 H     10   8   7     1.088284396562   110.95416445   296.99833904
 H     10   8   7     1.087471962635   110.11596462   177.31552241
 H     10   8   7     1.088401196449   110.98171564    57.53642785
 H     11   8   7     1.087946510593   109.62011561    57.43489185
 H     11   8   7     1.088811856002   110.90398622   297.20917404
 H     11   8   7     1.087602939687   110.71552712   177.05468072
 H     13  12   6     1.084779005036   112.24465600    72.90707076
 H     13  12   6     1.091089707951   110.31417366   311.71602741
 H     13  12   6     1.089385025019   109.78659765   192.78806216
 H     14  12   6     1.086542156617   111.49228832   290.02576811
 H     14  12   6     1.089998471646   108.81614988   171.60903061
 H     14  12   6     1.088005759600   112.15896408    52.68747931
 H     15  12   6     1.088772467360   110.42690327    48.30501114
 H     15  12   6     1.086712285097   112.32533215   286.84409068
 H     15  12   6     1.089088377496   109.72158824   167.25884286
 H     17  16   6     1.087648560712   111.13375356    62.32624915
 H     17  16   6     1.090935661315   110.43716014   301.86148669
 H     17  16   6     1.089155169546   110.14975167   182.24296576
 H     18  16   6     1.087490355905   111.97963406   283.35672367
 H     18  16   6     1.089532602821   108.32938032   165.78423773
 H     18  16   6     1.084178912057   112.85277452    46.37028493
 H     19  16   6     1.088681648847   110.65491656    41.97099174
 H     19  16   6     1.086974101710   111.46084872   280.30779259
 H     19  16   6     1.089630697349   109.79631321   160.93825582

---------------------------
INTERNAL COORDINATES (A.U.)
---------------------------
 O      0   0   0     0.000000000000     0.00000000     0.00000000
 C      1   0   0     2.156670058069     0.00000000     0.00000000
 Ni     2   1   0     3.402070030893   170.33885190     0.00000000
 C      3   2   1     3.407252061208   110.78641836    58.56417728
 O      4   3   2     2.155865452507   166.61539828   290.94443865
 P      3   2   1     4.592672624113   108.76009347   181.29604143
 C      6   3   2     3.523801824778   124.85731299   280.75111233
 C      7   6   3     2.910812140399   120.47661338   359.86661023
 C      8   7   6     2.881562696996   111.80783554    53.40287752
 C      8   7   6     2.899128936112   107.41565282   173.04093995
 C      8   7   6     2.884782421299   109.92151269   291.45887925
 C      6   3   2     3.607437061571   109.21207584    40.00104376
 C     12   6   3     2.891416189982   109.30483069    42.51646866
 C     12   6   3     2.885422283873   115.28678558   165.97569949
 C     12   6   3     2.896141007181   106.47980529   287.05275341
 C      6   3   2     3.608409144848   110.52568717   160.57473770
 C     16   6   3     2.893889470218   104.98453432    49.39892053
 C     16   6   3     2.895754026746   116.69711320   169.18140549
 C     16   6   3     2.887717941899   109.61592948   293.33136695
 C      3   2   1     3.407900978623   110.09268856   298.98012380
 O     20   3   2     2.156630973891   168.65663180    58.90514834
 H      7   6   3     2.058238322229   106.71897075   237.84005346
 H      7   6   3     2.061217239799   106.65735045   123.39763434
 H      9   8   7     2.054384977515   111.07387812    60.90460483
 H      9   8   7     2.060692349214   109.82779587   300.34767989
 H      9   8   7     2.055746291591   110.38840784   181.05160868
 H     10   8   7     2.056559465323   110.95416445   296.99833904
 H     10   8   7     2.055024187698   110.11596462   177.31552241
 H     10   8   7     2.056780185121   110.98171564    57.53642785
 H     11   8   7     2.055920953375   109.62011561    57.43489185
 H     11   8   7     2.057556219210   110.90398622   297.20917404
 H     11   8   7     2.055271698456   110.71552712   177.05468072
 H     13  12   6     2.049935235345   112.24465600    72.90707076
 H     13  12   6     2.061860735567   110.31417366   311.71602741
 H     13  12   6     2.058639351680   109.78659765   192.78806216
 H     14  12   6     2.053267108967   111.49228832   290.02576811
 H     14  12   6     2.059798597803   108.81614988   171.60903061
 H     14  12   6     2.056032917773   112.15896408    52.68747931
 H     15  12   6     2.057481785463   110.42690327    48.30501114
 H     15  12   6     2.053588605202   112.32533215   286.84409068
 H     15  12   6     2.058078769104   109.72158824   167.25884286
 H     17  16   6     2.055357909699   111.13375356    62.32624915
 H     17  16   6     2.061569629613   110.43716014   301.86148669
 H     17  16   6     2.058204987787   110.14975167   182.24296576
 H     18  16   6     2.055058945942   111.97963406   283.35672367
 H     18  16   6     2.058918233311   108.32938032   165.78423773
 H     18  16   6     2.048801223961   112.85277452    46.37028493
 H     19  16   6     2.057310163346   110.65491656    41.97099174
 H     19  16   6     2.054083366896   111.46084872   280.30779259
 H     19  16   6     2.059103605104   109.79631321   160.93825582

---------------------
BASIS SET INFORMATION
---------------------
There are 5 groups of distinct atoms

 Group   1 Type O   : 7s4p1d contracted to 3s2p1d pattern {511/31/1}
 Group   2 Type C   : 7s4p1d contracted to 3s2p1d pattern {511/31/1}
 Group   3 Type Ni  : 17s11p7d1f contracted to 6s4p4d1f pattern {842111/6311/4111/1}
 Group   4 Type P   : 10s7p1d contracted to 4s3p1d pattern {5311/511/1}
 Group   5 Type H   : 4s1p contracted to 2s1p pattern {31/1}

Atom   0O    basis set group =>   1
Atom   1C    basis set group =>   2
Atom   2Ni   basis set group =>   3
Atom   3C    basis set group =>   2
Atom   4O    basis set group =>   1
Atom   5P    basis set group =>   4
Atom   6C    basis set group =>   2
Atom   7C    basis set group =>   2
Atom   8C    basis set group =>   2
Atom   9C    basis set group =>   2
Atom  10C    basis set group =>   2
Atom  11C    basis set group =>   2
Atom  12C    basis set group =>   2
Atom  13C    basis set group =>   2
Atom  14C    basis set group =>   2
Atom  15C    basis set group =>   2
Atom  16C    basis set group =>   2
Atom  17C    basis set group =>   2
Atom  18C    basis set group =>   2
Atom  19C    basis set group =>   2
Atom  20O    basis set group =>   1
Atom  21H    basis set group =>   5
Atom  22H    basis set group =>   5
Atom  23H    basis set group =>   5
Atom  24H    basis set group =>   5
Atom  25H    basis set group =>   5
Atom  26H    basis set group =>   5
Atom  27H    basis set group =>   5
Atom  28H    basis set group =>   5
Atom  29H    basis set group =>   5
Atom  30H    basis set group =>   5
Atom  31H    basis set group =>   5
Atom  32H    basis set group =>   5
Atom  33H    basis set group =>   5
Atom  34H    basis set group =>   5
Atom  35H    basis set group =>   5
Atom  36H    basis set group =>   5
Atom  37H    basis set group =>   5
Atom  38H    basis set group =>   5
Atom  39H    basis set group =>   5
Atom  40H    basis set group =>   5
Atom  41H    basis set group =>   5
Atom  42H    basis set group =>   5
Atom  43H    basis set group =>   5
Atom  44H    basis set group =>   5
Atom  45H    basis set group =>   5
Atom  46H    basis set group =>   5
Atom  47H    basis set group =>   5
Atom  48H    basis set group =>   5
Atom  49H    basis set group =>   5
---------------------------------
AUXILIARY/J BASIS SET INFORMATION
---------------------------------
There are 5 groups of distinct atoms

 Group   1 Type O   : 12s5p4d2f1g contracted to 6s4p3d1f1g pattern {711111/2111/211/2/1}
 Group   2 Type C   : 12s5p4d2f1g contracted to 6s4p3d1f1g pattern {711111/2111/211/2/1}
 Group   3 Type Ni  : 19s5p5d3f3g contracted to 8s5p5d2f3g pattern {121111111/11111/11111/21/111}
 Group   4 Type P   : 14s5p5d2f1g contracted to 8s4p3d1f1g pattern {71111111/2111/311/2/1}
 Group   5 Type H   : 5s2p1d contracted to 3s1p1d pattern {311/2/1}

Atom   0O    basis set group =>   1
Atom   1C    basis set group =>   2
Atom   2Ni   basis set group =>   3
Atom   3C    basis set group =>   2
Atom   4O    basis set group =>   1
Atom   5P    basis set group =>   4
Atom   6C    basis set group =>   2
Atom   7C    basis set group =>   2
Atom   8C    basis set group =>   2
Atom   9C    basis set group =>   2
Atom  10C    basis set group =>   2
Atom  11C    basis set group =>   2
Atom  12C    basis set group =>   2
Atom  13C    basis set group =>   2
Atom  14C    basis set group =>   2
Atom  15C    basis set group =>   2
Atom  16C    basis set group =>   2
Atom  17C    basis set group =>   2
Atom  18C    basis set group =>   2
Atom  19C    basis set group =>   2
Atom  20O    basis set group =>   1
Atom  21H    basis set group =>   5
Atom  22H    basis set group =>   5
Atom  23H    basis set group =>   5
Atom  24H    basis set group =>   5
Atom  25H    basis set group =>   5
Atom  26H    basis set group =>   5
Atom  27H    basis set group =>   5
Atom  28H    basis set group =>   5
Atom  29H    basis set group =>   5
Atom  30H    basis set group =>   5
Atom  31H    basis set group =>   5
Atom  32H    basis set group =>   5
Atom  33H    basis set group =>   5
Atom  34H    basis set group =>   5
Atom  35H    basis set group =>   5
Atom  36H    basis set group =>   5
Atom  37H    basis set group =>   5
Atom  38H    basis set group =>   5
Atom  39H    basis set group =>   5
Atom  40H    basis set group =>   5
Atom  41H    basis set group =>   5
Atom  42H    basis set group =>   5
Atom  43H    basis set group =>   5
Atom  44H    basis set group =>   5
Atom  45H    basis set group =>   5
Atom  46H    basis set group =>   5
Atom  47H    basis set group =>   5
Atom  48H    basis set group =>   5
Atom  49H    basis set group =>   5
--------------------------------------------------------------------------
WARNING: No preset parameters were found for the device that Open MPI
detected:

  Local host:            eu-g9-016-3
  Device name:           mlx5_0
  Device vendor ID:      0x02c9
  Device vendor part ID: 4123

Default device parameters will be used, which may result in lower
performance.  You can edit any of the files specified by the
btl_openib_device_param_files MCA parameter to set values for your
device.

NOTE: You can turn off this warning by setting the MCA parameter
      btl_openib_warn_no_device_params_found to 0.
--------------------------------------------------------------------------
--------------------------------------------------------------------------
WARNING: There is at least non-excluded one OpenFabrics device found,
but there are no active ports detected (or Open MPI was unable to use
them).  This is most certainly not what you wanted.  Check your
cables, subnet manager configuration, etc.  The openib BTL will be
ignored for this job.

  Local host: eu-g9-016-3
--------------------------------------------------------------------------


           ************************************************************
           *        Program running with 10 parallel MPI-processes    *
           *              working on a common directory               *
           ************************************************************
------------------------------------------------------------------------------
                           ORCA GTO INTEGRAL CALCULATION
                           -- RI-GTO INTEGRALS CHOSEN --
------------------------------------------------------------------------------

                         BASIS SET STATISTICS AND STARTUP INFO

Gaussian basis set:
 # of primitive gaussian shells          ...  427
 # of primitive gaussian functions       ...  787
 # of contracted shells                  ...  224
 # of contracted basis functions         ...  474
 Highest angular momentum                ...    3
 Maximum contraction depth               ...    8
Auxiliary gaussian basis set:
 # of primitive gaussian shells          ...  750
 # of primitive gaussian functions       ... 1978
 # of contracted shells                  ...  470
 # of contracted aux-basis functions     ... 1390
 Highest angular momentum                ...    4
 Maximum contraction depth               ...   12
Ratio of auxiliary to basis functions    ...  2.93
Integral package used                  ... LIBINT
 One Electron integrals                  ... done
 Ordering auxiliary basis shells         ... done
 Integral threshhold             Thresh  ...  2.500e-11
 Primitive cut-off               TCut    ...  2.500e-12
 Pre-screening matrix                    ... done
 Shell pair data                         ... 
 Ordering of the shell pairs             ... done (   0.003 sec) 20416 of 25200 pairs
 Determination of significant pairs      ... done (   0.000 sec)
 Creation of shell pair data             ... done (   0.002 sec)
 Storage of shell pair data              ... done (   0.005 sec)
 Shell pair data done in (   0.010 sec)
 Computing two index integrals           ... done
 Cholesky decomposition of the V-matrix  ... done


Timings:
 Total evaluation time                   ...   0.381 sec (  0.006 min)
 One electron matrix time                ...   0.100 sec (  0.002 min) = 26.1%
 Schwartz matrix evaluation time         ...   0.120 sec (  0.002 min) = 31.4%
 Two index repulsion integral time       ...   0.031 sec (  0.001 min) =  8.1%
 Cholesky decomposition of V             ...   0.100 sec (  0.002 min) = 26.3%
 Three index repulsion integral time     ...   0.000 sec (  0.000 min) =  0.0%

--------------------------------------------------------------------------
WARNING: No preset parameters were found for the device that Open MPI
detected:

  Local host:            eu-g9-016-3
  Device name:           mlx5_0
  Device vendor ID:      0x02c9
  Device vendor part ID: 4123

Default device parameters will be used, which may result in lower
performance.  You can edit any of the files specified by the
btl_openib_device_param_files MCA parameter to set values for your
device.

NOTE: You can turn off this warning by setting the MCA parameter
      btl_openib_warn_no_device_params_found to 0.
--------------------------------------------------------------------------
--------------------------------------------------------------------------
WARNING: There is at least non-excluded one OpenFabrics device found,
but there are no active ports detected (or Open MPI was unable to use
them).  This is most certainly not what you wanted.  Check your
cables, subnet manager configuration, etc.  The openib BTL will be
ignored for this job.

  Local host: eu-g9-016-3
--------------------------------------------------------------------------


           ************************************************************
           *        Program running with 10 parallel MPI-processes    *
           *              working on a common directory               *
           ************************************************************
-------------------------------------------------------------------------------
                                 ORCA SCF
-------------------------------------------------------------------------------

------------
SCF SETTINGS
------------
Hamiltonian:
 Density Functional     Method          .... DFT(GTOs)
 Exchange Functional    Exchange        .... PBE
   PBE kappa parameter   XKappa         ....  0.804000
   PBE mue parameter    XMuePBE         ....  0.219520
 Correlation Functional Correlation     .... PBE
   PBE beta parameter  CBetaPBE         ....  0.066725
 LDA part of GGA corr.  LDAOpt          .... PW91-LDA
 Gradients option       PostSCFGGA      .... off
 Hybrid DFT is turned on
   Fraction HF Exchange ScalHFX         ....  0.250000
   Scaling of DF-GGA-X  ScalDFX         ....  0.750000
   Scaling of DF-GGA-C  ScalDFC         ....  1.000000
   Scaling of DF-LDA-C  ScalLDAC        ....  1.000000
   Perturbative correction              ....  0.000000
   Density functional embedding theory  .... OFF
   NL short-range parameter             ....  6.900000
 RI-approximation to the Coulomb term is turned on
   Number of auxiliary basis functions  .... 1390
   RIJ-ON(X) (HFX calculated with O(N)) .... on


General Settings:
 Integral files         IntName         .... TEP_Ni
 Hartree-Fock type      HFTyp           .... RHF
 Total Charge           Charge          ....    0
 Multiplicity           Mult            ....    1
 Number of Electrons    NEL             ....  192
 Basis Dimension        Dim             ....  474
 Nuclear Repulsion      ENuc            ....   2630.1788160208 Eh

Convergence Acceleration:
 DIIS                   CNVDIIS         .... on
   Start iteration      DIISMaxIt       ....    12
   Startup error        DIISStart       ....  0.200000
   # of expansion vecs  DIISMaxEq       ....     5
   Bias factor          DIISBfac        ....   1.050
   Max. coefficient     DIISMaxC        ....  10.000
 Newton-Raphson         CNVNR           .... off
 SOSCF                  CNVSOSCF        .... off
 Level Shifting         CNVShift        .... on
   Level shift para.    LevelShift      ....    0.2500
   Turn off err/grad.   ShiftErr        ....    0.0010
 Zerner damping         CNVZerner       .... off
 Static damping         CNVDamp         .... on
   Fraction old density DampFac         ....    0.7000
   Max. Damping (<1)    DampMax         ....    0.9800
   Min. Damping (>=0)   DampMin         ....    0.0000
   Turn off err/grad.   DampErr         ....    0.1000
 Fernandez-Rico         CNVRico         .... off

SCF Procedure:
 Maximum # iterations   MaxIter         ....   125
 SCF integral mode      SCFMode         .... Direct
   Integral package                     .... LIBINT
 Reset frequency        DirectResetFreq ....    20
 Integral Threshold     Thresh          ....  2.500e-11 Eh
 Primitive CutOff       TCut            ....  2.500e-12 Eh

Convergence Tolerance:
 Convergence Check Mode ConvCheckMode   .... Total+1el-Energy
 Convergence forced     ConvForced      .... 0
 Energy Change          TolE            ....  1.000e-08 Eh
 1-El. energy change                    ....  1.000e-05 Eh
 DIIS Error             TolErr          ....  5.000e-07


Diagonalization of the overlap matrix:
Smallest eigenvalue                        ... 1.103e-03
Time for diagonalization                   ...    0.073 sec
Threshold for overlap eigenvalues          ... 1.000e-08
Number of eigenvalues below threshold      ... 0
Time for construction of square roots      ...    0.051 sec
Total time needed                          ...    0.126 sec

-------------------
DFT GRID GENERATION
-------------------

General Integration Accuracy     IntAcc      ...  4.340
Radial Grid Type                 RadialGrid  ... Gauss-Chebyshev
Angular Grid (max. acc.)         AngularGrid ... Lebedev-110
Angular grid pruning method      GridPruning ... 3 (G Style)
Weight generation scheme         WeightScheme... Becke
Basis function cutoff            BFCut       ...    1.0000e-11
Integration weight cutoff        WCut        ...    1.0000e-14
Grids for H and He will be reduced by one unit

# of grid points (after initial pruning)     ...  59388 (   0.0 sec)
# of grid points (after weights+screening)   ...  51640 (   0.1 sec)
nearest neighbour list constructed           ...    0.0 sec
Grid point re-assignment to atoms done       ...    0.0 sec
Grid point division into batches done        ...    0.0 sec
Reduced shell lists constructed in    0.1 sec

Total number of grid points                  ...    51640
Total number of batches                      ...      835
Average number of points per batch           ...       61
Average number of grid points per atom       ...     1033
Average number of shells per batch           ...   117.06 (52.26%)
Average number of basis functions per batch  ...   231.91 (48.93%)
Average number of large shells per batch     ...    70.27 (60.03%)
Average number of large basis fcns per batch ...   142.25 (61.34%)
Maximum spatial batch extension              ...  22.54, 17.17, 20.04 au
Average spatial batch extension              ...   0.34,  0.32,  0.30 au

Time for grid setup =    0.189 sec

------------------------------
INITIAL GUESS: MODEL POTENTIAL
------------------------------
Loading Hartree-Fock densities                     ... done
Calculating cut-offs                               ... done
Setting up the integral package                    ... done
Initializing the effective Hamiltonian             ... done
Starting the Coulomb interaction                   ... done (   0.1 sec)
Reading the grid                                   ... done
Mapping shells                                     ... done
Starting the XC term evaluation                    ... done (   0.1 sec)
  promolecular density results
     # of electrons  =    192.001914375
     EX              =   -199.014047336
     EC              =     -6.837763538
     EX+EC           =   -205.851810874
Transforming the Hamiltonian                       ... done (   0.0 sec)
Diagonalizing the Hamiltonian                      ... done (   0.1 sec)
Back transforming the eigenvectors                 ... done (   0.0 sec)
Now organizing SCF variables                       ... done
                      ------------------
                      INITIAL GUESS DONE (   0.6 sec)
                      ------------------
--------------
SCF ITERATIONS
--------------
ITER       Energy         Delta-E        Max-DP      RMS-DP      [F,P]     Damp
               ***  Starting incremental Fock matrix formation  ***
  0  -2699.9550849072   0.000000000000 0.09272247  0.00132523  0.1629606 0.7000
  1  -2700.1982898140  -0.243204906868 0.04695987  0.00086950  0.1010608 0.7000
                               ***Turning on DIIS***
  2  -2700.3100796957  -0.111789881702 0.12545678  0.00156772  0.0357331 0.0000
  3  -2700.4613651271  -0.151285431395 0.01020680  0.00018610  0.1025463 0.7000
  4  -2700.4822691001  -0.020903972942 0.03205529  0.00058599  0.0436178 0.0000
  5  -2700.5095749263  -0.027305826208 0.01152092  0.00015329  0.0294571 0.0000
  6  -2700.5112683953  -0.001693469004 0.00356276  0.00004897  0.0192485 0.0000
  7  -2700.5115618991  -0.000293503853 0.00323136  0.00003166  0.0047418 0.0000
  8  -2700.5116343268  -0.000072427619 0.00090295  0.00001079  0.0035081 0.0000
  9  -2700.5116476498  -0.000013323078 0.00028370  0.00000508  0.0005846 0.0000
 10  -2700.5116488238  -0.000001173947 0.00016615  0.00000210  0.0001592 0.0000
 11  -2700.5116490812  -0.000000257417 0.00003909  0.00000067  0.0000823 0.0000
 12  -2700.5116491059  -0.000000024693 0.00001194  0.00000024  0.0000180 0.0000
 13  -2700.5116491083  -0.000000002393 0.00000858  0.00000011  0.0000061 0.0000
 14  -2700.5116490950   0.000000013323 0.00000343  0.00000004  0.0000052 0.0000
 15  -2700.5116490632   0.000000031786 0.00000182  0.00000002  0.0000050 0.0000
 16  -2700.5116490674  -0.000000004241 0.00000129  0.00000002  0.0000031 0.0000
 17  -2700.5116490731  -0.000000005685 0.00000066  0.00000001  0.0000010 0.0000
 18  -2700.5116490713   0.000000001802 0.00000055  0.00000000  0.0000010 0.0000
                            ***DIIS convergence achieved***

               *****************************************************
               *                     SUCCESS                       *
               *           SCF CONVERGED AFTER  19 CYCLES          *
               *****************************************************

Setting up the final grid:

General Integration Accuracy     IntAcc      ...  4.670
Radial Grid Type                 RadialGrid  ... Gauss-Chebyshev
Angular Grid (max. acc.)         AngularGrid ... Lebedev-302
Angular grid pruning method      GridPruning ... 3 (G Style)
Weight generation scheme         WeightScheme... Becke
Basis function cutoff            BFCut       ...    1.0000e-11
Integration weight cutoff        WCut        ...    1.0000e-14
Grids for H and He will be reduced by one unit

# of grid points (after initial pruning)     ... 232964 (   0.0 sec)
# of grid points (after weights+screening)   ... 197273 (   0.2 sec)
nearest neighbour list constructed           ...    0.0 sec
Grid point re-assignment to atoms done       ...    0.0 sec
Grid point division into batches done        ...    0.5 sec
Reduced shell lists constructed in    0.7 sec

Total number of grid points                  ...   197273
Total number of batches                      ...     3107
Average number of points per batch           ...       63
Average number of grid points per atom       ...     3945
Average number of shells per batch           ...   108.17 (48.29%)
Average number of basis functions per batch  ...   211.49 (44.62%)
Average number of large shells per batch     ...    64.47 (59.60%)
Average number of large basis fcns per batch ...   130.59 (61.75%)
Maximum spatial batch extension              ...  16.19, 18.70, 14.01 au
Average spatial batch extension              ...   0.21,  0.21,  0.20 au

Final grid set up in    1.0 sec
Final integration                            ... done (   0.4 sec)
Change in XC energy                          ...     0.001977768
Integrated number of electrons               ...   192.000413757
Previous integrated no of electrons          ...   192.008561361

----------------
TOTAL SCF ENERGY
----------------

Total Energy       :        -2700.50967129 Eh          -73484.60404 eV

Components:
Nuclear Repulsion  :         2630.17881602 Eh           71570.80417 eV
Electronic Energy  :        -5330.68848731 Eh         -145055.40821 eV
One Electron Energy:        -8961.59829704 Eh         -243857.48714 eV
Two Electron Energy:         3630.90980972 Eh           98802.07892 eV

Virial components:
Potential Energy   :        -5389.87962089 Eh         -146666.08084 eV
Kinetic Energy     :         2689.36994960 Eh           73181.47680 eV
Virial Ratio       :            2.00414213


DFT components:
N(Alpha)           :       96.000206878424 electrons
N(Beta)            :       96.000206878424 electrons
N(Total)           :      192.000413756847 electrons
E(X)               :     -151.026114121893 Eh       
E(C)               :       -6.845746133393 Eh       
E(XC)              :     -157.871860255286 Eh       
DFET-embed. en.    :        0.000000000000 Eh       

---------------
SCF CONVERGENCE
---------------

  Last Energy change         ...    1.2146e-08  Tolerance :   1.0000e-08
  Last MAX-Density change    ...    1.9355e-07  Tolerance :   1.0000e-07
  Last RMS-Density change    ...    3.2540e-09  Tolerance :   5.0000e-09
  Last DIIS Error            ...    5.3958e-07  Tolerance :   5.0000e-07

             **** THE GBW FILE WAS UPDATED (TEP_Ni.gbw) ****
             **** DENSITY FILE WAS UPDATED (TEP_Ni.scfp) ****
             **** ENERGY FILE WAS UPDATED (TEP_Ni.en.tmp) ****
             **** THE GBW FILE WAS UPDATED (TEP_Ni.gbw) ****
             **** DENSITY FILE WAS UPDATED (TEP_Ni.scfp) ****
----------------
ORBITAL ENERGIES
----------------

  NO   OCC          E(Eh)            E(eV) 
   0   2.0000    -300.143040     -8167.3073 
   1   2.0000     -77.225289     -2101.4070 
   2   2.0000     -35.889658      -976.6072 
   3   2.0000     -31.278360      -851.1274 
   4   2.0000     -31.277906      -851.1151 
   5   2.0000     -31.274618      -851.0256 
   6   2.0000     -19.282762      -524.7106 
   7   2.0000     -19.282696      -524.7088 
   8   2.0000     -19.281417      -524.6740 
   9   2.0000     -10.338417      -281.3226 
  10   2.0000     -10.338101      -281.3140 
  11   2.0000     -10.336822      -281.2792 
  12   2.0000     -10.264906      -279.3223 
  13   2.0000     -10.264431      -279.3094 
  14   2.0000     -10.251008      -278.9441 
  15   2.0000     -10.242278      -278.7065 
  16   2.0000     -10.235732      -278.5284 
  17   2.0000     -10.234314      -278.4899 
  18   2.0000     -10.232440      -278.4389 
  19   2.0000     -10.231841      -278.4226 
  20   2.0000     -10.228357      -278.3278 
  21   2.0000     -10.225806      -278.2583 
  22   2.0000     -10.223597      -278.1982 
  23   2.0000     -10.219895      -278.0975 
  24   2.0000     -10.215710      -277.9836 
  25   2.0000      -6.629336      -180.3934 
  26   2.0000      -4.769369      -129.7811 
  27   2.0000      -4.769276      -129.7786 
  28   2.0000      -4.767035      -129.7176 
  29   2.0000      -4.055775      -110.3633 
  30   2.0000      -2.631905       -71.6178 
  31   2.0000      -2.630846       -71.5890 
  32   2.0000      -2.620601       -71.3102 
  33   2.0000      -1.146811       -31.2063 
  34   2.0000      -1.146530       -31.1987 
  35   2.0000      -1.145525       -31.1713 
  36   2.0000      -0.862059       -23.4578 
  37   2.0000      -0.845479       -23.0066 
  38   2.0000      -0.836798       -22.7704 
  39   2.0000      -0.733660       -19.9639 
  40   2.0000      -0.718507       -19.5516 
  41   2.0000      -0.712387       -19.3850 
  42   2.0000      -0.709529       -19.3073 
  43   2.0000      -0.706537       -19.2258 
  44   2.0000      -0.704058       -19.1584 
  45   2.0000      -0.699641       -19.0382 
  46   2.0000      -0.638724       -17.3806 
  47   2.0000      -0.580937       -15.8081 
  48   2.0000      -0.571678       -15.5561 
  49   2.0000      -0.564501       -15.3609 
  50   2.0000      -0.563623       -15.3370 
  51   2.0000      -0.555437       -15.1142 
  52   2.0000      -0.528586       -14.3836 
  53   2.0000      -0.500108       -13.6086 
  54   2.0000      -0.489929       -13.3316 
  55   2.0000      -0.481045       -13.0899 
  56   2.0000      -0.480172       -13.0662 
  57   2.0000      -0.477585       -12.9957 
  58   2.0000      -0.475366       -12.9354 
  59   2.0000      -0.471520       -12.8307 
  60   2.0000      -0.470977       -12.8159 
  61   2.0000      -0.462925       -12.5968 
  62   2.0000      -0.461655       -12.5623 
  63   2.0000      -0.460825       -12.5397 
  64   2.0000      -0.459889       -12.5142 
  65   2.0000      -0.458929       -12.4881 
  66   2.0000      -0.455789       -12.4027 
  67   2.0000      -0.452443       -12.3116 
  68   2.0000      -0.443432       -12.0664 
  69   2.0000      -0.442974       -12.0539 
  70   2.0000      -0.438667       -11.9367 
  71   2.0000      -0.422379       -11.4935 
  72   2.0000      -0.417645       -11.3647 
  73   2.0000      -0.411548       -11.1988 
  74   2.0000      -0.408396       -11.1130 
  75   2.0000      -0.402436       -10.9508 
  76   2.0000      -0.398950       -10.8560 
  77   2.0000      -0.389715       -10.6047 
  78   2.0000      -0.385338       -10.4856 
  79   2.0000      -0.379328       -10.3220 
  80   2.0000      -0.377085       -10.2610 
  81   2.0000      -0.368671       -10.0320 
  82   2.0000      -0.359646        -9.7865 
  83   2.0000      -0.351427        -9.5628 
  84   2.0000      -0.348691        -9.4884 
  85   2.0000      -0.347607        -9.4589 
  86   2.0000      -0.342606        -9.3228 
  87   2.0000      -0.336396        -9.1538 
  88   2.0000      -0.318312        -8.6617 
  89   2.0000      -0.306985        -8.3535 
  90   2.0000      -0.302508        -8.2317 
  91   2.0000      -0.284997        -7.7552 
  92   2.0000      -0.284331        -7.7370 
  93   2.0000      -0.239373        -6.5137 
  94   2.0000      -0.236938        -6.4474 
  95   2.0000      -0.229842        -6.2543 
  96   0.0000      -0.030795        -0.8380 
  97   0.0000      -0.009476        -0.2579 
  98   0.0000      -0.007508        -0.2043 
  99   0.0000       0.017903         0.4872 
 100   0.0000       0.018742         0.5100 
 101   0.0000       0.022457         0.6111 
 102   0.0000       0.038298         1.0421 
 103   0.0000       0.051469         1.4005 
 104   0.0000       0.056890         1.5481 
 105   0.0000       0.072458         1.9717 
 106   0.0000       0.077042         2.0964 
 107   0.0000       0.085308         2.3213 
 108   0.0000       0.088347         2.4040 
 109   0.0000       0.095789         2.6066 
 110   0.0000       0.098978         2.6933 
 111   0.0000       0.101659         2.7663 
 112   0.0000       0.119904         3.2628 
 113   0.0000       0.120208         3.2710 
 114   0.0000       0.129517         3.5243 
 115   0.0000       0.132181         3.5968 
 116   0.0000       0.138825         3.7776 
 117   0.0000       0.143047         3.8925 
 118   0.0000       0.145044         3.9468 
 119   0.0000       0.145215         3.9515 
 120   0.0000       0.154369         4.2006 
 121   0.0000       0.159717         4.3461 
 122   0.0000       0.164617         4.4795 
 123   0.0000       0.170037         4.6269 
 124   0.0000       0.173869         4.7312 
 125   0.0000       0.175431         4.7737 
 126   0.0000       0.180046         4.8993 
 127   0.0000       0.184364         5.0168 
 128   0.0000       0.187050         5.0899 
 129   0.0000       0.196021         5.3340 
 130   0.0000       0.197114         5.3638 
 131   0.0000       0.201373         5.4796 
 132   0.0000       0.206633         5.6228 
 133   0.0000       0.209783         5.7085 
 134   0.0000       0.212780         5.7900 
 135   0.0000       0.215758         5.8711 
 136   0.0000       0.223026         6.0689 
 137   0.0000       0.223893         6.0924 
 138   0.0000       0.229236         6.2378 
 139   0.0000       0.236553         6.4369 
 140   0.0000       0.241543         6.5727 
 141   0.0000       0.250596         6.8191 
 142   0.0000       0.263283         7.1643 
 143   0.0000       0.272841         7.4244 
 144   0.0000       0.274501         7.4696 
 145   0.0000       0.288899         7.8613 
 146   0.0000       0.294964         8.0264 
 147   0.0000       0.304014         8.2727 
 148   0.0000       0.338010         9.1977 
 149   0.0000       0.348041         9.4707 
 150   0.0000       0.358859         9.7651 
 151   0.0000       0.367598        10.0029 
 152   0.0000       0.375787        10.2257 
 153   0.0000       0.390165        10.6169 
 154   0.0000       0.403256        10.9732 
 155   0.0000       0.407677        11.0935 
 156   0.0000       0.420976        11.4553 
 157   0.0000       0.428179        11.6513 
 158   0.0000       0.429650        11.6914 
 159   0.0000       0.444569        12.0973 
 160   0.0000       0.453683        12.3453 
 161   0.0000       0.458622        12.4797 
 162   0.0000       0.468281        12.7426 
 163   0.0000       0.477294        12.9878 
 164   0.0000       0.488625        13.2962 
 165   0.0000       0.500356        13.6154 
 166   0.0000       0.506443        13.7810 
 167   0.0000       0.510507        13.8916 
 168   0.0000       0.518179        14.1004 
 169   0.0000       0.529850        14.4179 
 170   0.0000       0.539811        14.6890 
 171   0.0000       0.549962        14.9652 
 172   0.0000       0.557407        15.1678 
 173   0.0000       0.565394        15.3852 
 174   0.0000       0.568067        15.4579 
 175   0.0000       0.577229        15.7072 
 176   0.0000       0.584014        15.8918 
 177   0.0000       0.591583        16.0978 
 178   0.0000       0.601443        16.3661 
 179   0.0000       0.605481        16.4760 
 180   0.0000       0.617070        16.7913 
 181   0.0000       0.618343        16.8260 
 182   0.0000       0.622415        16.9368 
 183   0.0000       0.637889        17.3578 
 184   0.0000       0.638581        17.3767 
 185   0.0000       0.645104        17.5542 
 186   0.0000       0.649824        17.6826 
 187   0.0000       0.652609        17.7584 
 188   0.0000       0.658880        17.9290 
 189   0.0000       0.659893        17.9566 
 190   0.0000       0.662802        18.0358 
 191   0.0000       0.666044        18.1240 
 192   0.0000       0.676052        18.3963 
 193   0.0000       0.680149        18.5078 
 194   0.0000       0.681649        18.5486 
 195   0.0000       0.684196        18.6179 
 196   0.0000       0.686904        18.6916 
 197   0.0000       0.688071        18.7234 
 198   0.0000       0.694209        18.8904 
 199   0.0000       0.695099        18.9146 
 200   0.0000       0.695785        18.9333 
 201   0.0000       0.701995        19.1023 
 202   0.0000       0.704996        19.1839 
 203   0.0000       0.711988        19.3742 
 204   0.0000       0.713588        19.4177 
 205   0.0000       0.721378        19.6297 
 206   0.0000       0.723516        19.6879 
 207   0.0000       0.728972        19.8363 
 208   0.0000       0.730767        19.8852 
 209   0.0000       0.737267        20.0621 
 210   0.0000       0.741747        20.1840 
 211   0.0000       0.745912        20.2973 
 212   0.0000       0.749975        20.4079 
 213   0.0000       0.754498        20.5309 
 214   0.0000       0.755516        20.5586 
 215   0.0000       0.756669        20.5900 
 216   0.0000       0.761615        20.7246 
 217   0.0000       0.763662        20.7803 
 218   0.0000       0.766390        20.8545 
 219   0.0000       0.767862        20.8946 
 220   0.0000       0.775406        21.0999 
 221   0.0000       0.780455        21.2372 
 222   0.0000       0.783608        21.3230 
 223   0.0000       0.786885        21.4122 
 224   0.0000       0.792147        21.5554 
 225   0.0000       0.799210        21.7476 
 226   0.0000       0.807468        21.9723 
 227   0.0000       0.810764        22.0620 
 228   0.0000       0.819058        22.2877 
 229   0.0000       0.826312        22.4851 
 230   0.0000       0.836112        22.7518 
 231   0.0000       0.839646        22.8479 
 232   0.0000       0.847940        23.0736 
 233   0.0000       0.849021        23.1030 
 234   0.0000       0.858429        23.3590 
 235   0.0000       0.868577        23.6352 
 236   0.0000       0.879582        23.9346 
 237   0.0000       0.892795        24.2942 
 238   0.0000       0.901867        24.5410 
 239   0.0000       0.915389        24.9090 
 240   0.0000       0.922371        25.0990 
 241   0.0000       0.941065        25.6077 
 242   0.0000       0.947999        25.7964 
 243   0.0000       0.970856        26.4183 
 244   0.0000       0.986068        26.8323 
 245   0.0000       1.003005        27.2931 
 246   0.0000       1.021018        27.7833 
 247   0.0000       1.038772        28.2664 
 248   0.0000       1.043506        28.3952 
 249   0.0000       1.050610        28.5886 
 250   0.0000       1.061142        28.8751 
 251   0.0000       1.076392        29.2901 
 252   0.0000       1.086283        29.5593 
 253   0.0000       1.100981        29.9592 
 254   0.0000       1.104253        30.0483 
 255   0.0000       1.108525        30.1645 
 256   0.0000       1.111306        30.2402 
 257   0.0000       1.119097        30.4522 
 258   0.0000       1.124090        30.5881 
 259   0.0000       1.131962        30.8022 
 260   0.0000       1.139562        31.0091 
 261   0.0000       1.151129        31.3238 
 262   0.0000       1.171103        31.8673 
 263   0.0000       1.176962        32.0268 
 264   0.0000       1.186958        32.2988 
 265   0.0000       1.194467        32.5031 
 266   0.0000       1.206397        32.8277 
 267   0.0000       1.210826        32.9483 
 268   0.0000       1.217819        33.1385 
 269   0.0000       1.222930        33.2776 
 270   0.0000       1.238658        33.7056 
 271   0.0000       1.254588        34.1391 
 272   0.0000       1.268678        34.5225 
 273   0.0000       1.283278        34.9198 
 274   0.0000       1.290149        35.1067 
 275   0.0000       1.316761        35.8309 
 276   0.0000       1.320996        35.9461 
 277   0.0000       1.334306        36.3083 
 278   0.0000       1.364240        37.1229 
 279   0.0000       1.391414        37.8623 
 280   0.0000       1.400382        38.1063 
 281   0.0000       1.451788        39.5052 
 282   0.0000       1.481183        40.3050 
 283   0.0000       1.490635        40.5622 
 284   0.0000       1.495698        40.7000 
 285   0.0000       1.503570        40.9142 
 286   0.0000       1.520243        41.3679 
 287   0.0000       1.528147        41.5830 
 288   0.0000       1.542056        41.9615 
 289   0.0000       1.549143        42.1543 
 290   0.0000       1.555258        42.3207 
 291   0.0000       1.558373        42.4055 
 292   0.0000       1.572178        42.7811 
 293   0.0000       1.576228        42.8914 
 294   0.0000       1.581470        43.0340 
 295   0.0000       1.587259        43.1915 
 296   0.0000       1.589431        43.2506 
 297   0.0000       1.591677        43.3117 
 298   0.0000       1.597178        43.4614 
 299   0.0000       1.602221        43.5987 
 300   0.0000       1.610004        43.8104 
 301   0.0000       1.615754        43.9669 
 302   0.0000       1.621050        44.1110 
 303   0.0000       1.635711        44.5100 
 304   0.0000       1.642283        44.6888 
 305   0.0000       1.648074        44.8464 
 306   0.0000       1.649788        44.8930 
 307   0.0000       1.658953        45.1424 
 308   0.0000       1.669517        45.4299 
 309   0.0000       1.678167        45.6653 
 310   0.0000       1.684315        45.8325 
 311   0.0000       1.696219        46.1565 
 312   0.0000       1.705778        46.4166 
 313   0.0000       1.717230        46.7282 
 314   0.0000       1.741388        47.3856 
 315   0.0000       1.752513        47.6883 
 316   0.0000       1.762169        47.9511 
 317   0.0000       1.767640        48.0999 
 318   0.0000       1.772128        48.2220 
 319   0.0000       1.783418        48.5293 
 320   0.0000       1.785572        48.5879 
 321   0.0000       1.788688        48.6727 
 322   0.0000       1.794200        48.8227 
 323   0.0000       1.798937        48.9516 
 324   0.0000       1.803167        49.0667 
 325   0.0000       1.812062        49.3087 
 326   0.0000       1.812415        49.3183 
 327   0.0000       1.817064        49.4448 
 328   0.0000       1.828403        49.7534 
 329   0.0000       1.836685        49.9787 
 330   0.0000       1.845644        50.2225 
 331   0.0000       1.850405        50.3521 
 332   0.0000       1.852459        50.4080 
 333   0.0000       1.856931        50.5297 
 334   0.0000       1.864587        50.7380 
 335   0.0000       1.867358        50.8134 
 336   0.0000       1.871379        50.9228 
 337   0.0000       1.873721        50.9866 
 338   0.0000       1.884363        51.2761 
 339   0.0000       1.892193        51.4892 
 340   0.0000       1.893293        51.5191 
 341   0.0000       1.904008        51.8107 
 342   0.0000       1.913392        52.0661 
 343   0.0000       1.918509        52.2053 
 344   0.0000       1.924694        52.3736 
 345   0.0000       1.927189        52.4415 
 346   0.0000       1.938229        52.7419 
 347   0.0000       1.947576        52.9962 
 348   0.0000       1.953228        53.1500 
 349   0.0000       1.958030        53.2807 
 350   0.0000       1.961918        53.3865 
 351   0.0000       1.969431        53.5909 
 352   0.0000       1.974855        53.7385 
 353   0.0000       1.985874        54.0384 
 354   0.0000       1.989860        54.1468 
 355   0.0000       1.999729        54.4154 
 356   0.0000       2.004933        54.5570 
 357   0.0000       2.013332        54.7855 
 358   0.0000       2.019133        54.9434 
 359   0.0000       2.025074        55.1051 
 360   0.0000       2.037916        55.4545 
 361   0.0000       2.045884        55.6713 
 362   0.0000       2.051679        55.8290 
 363   0.0000       2.053014        55.8654 
 364   0.0000       2.075379        56.4739 
 365   0.0000       2.097234        57.0686 
 366   0.0000       2.134176        58.0739 
 367   0.0000       2.157532        58.7094 
 368   0.0000       2.165653        58.9304 
 369   0.0000       2.172813        59.1252 
 370   0.0000       2.182785        59.3966 
 371   0.0000       2.199528        59.8522 
 372   0.0000       2.207789        60.0770 
 373   0.0000       2.217160        60.3320 
 374   0.0000       2.223714        60.5103 
 375   0.0000       2.230363        60.6913 
 376   0.0000       2.244965        61.0886 
[...]
  52:       490.59    9.563476  (  2.486170  -1.817568   0.280858)
  53:       511.85    7.738860  (  1.342651  -2.076838  -1.273928)
  54:       514.77    3.929676  (  0.218009  -0.970903  -1.714495)
  55:       516.89    0.813577  ( -0.633974  -0.100873   0.633623)
  56:       582.67   11.658484  (  2.266807  -2.553442   0.001996)
  57:       598.14    5.893618  (  2.090214   1.070575  -0.615218)
  58:       713.41   20.233638  (  1.349939  -2.189598  -3.690117)
  59:       787.46   12.404765  ( -2.237273  -2.715138  -0.165526)
  60:       797.14    4.863153  (  0.414752   0.524853  -2.101348)
  61:       837.82   12.756121  ( -1.784476  -2.947973   0.938736)
  62:       838.74    7.429059  ( -2.649164   0.585988   0.260019)
  63:       931.67    2.188059  ( -0.203354   0.221058   1.448392)
  64:       945.31    1.074489  (  0.744416  -0.278576  -0.665379)
  65:       946.84    0.923815  ( -0.459346   0.812552  -0.229294)
  66:       947.15    0.765734  ( -0.184539  -0.361150  -0.775403)
  67:       949.83    0.274764  (  0.103215  -0.312393  -0.408071)
  68:       950.71    0.550283  ( -0.677407  -0.275787   0.123874)
  69:       952.77    0.699815  (  0.246135  -0.795859  -0.076432)
  70:       954.60    1.045762  ( -0.286047   0.169108  -0.967131)
  71:       957.07    1.269591  (  0.836549  -0.462093   0.596864)
  72:       963.26    0.223366  ( -0.161543   0.440736   0.054967)
  73:      1016.35    0.650618  (  0.390762   0.395295  -0.584521)
  74:      1026.04    0.582285  (  0.045710   0.754447  -0.104912)
  75:      1026.51    2.803165  ( -1.152017   0.718708  -0.979531)
  76:      1030.62    8.060417  (  0.141237   2.340870   1.600249)
  77:      1032.27    3.111605  (  1.656102   0.494991  -0.352013)
  78:      1036.27    3.437961  ( -0.794571   1.274451   1.087379)
  79:      1153.32    6.894652  ( -1.394547  -2.129103   0.645609)
  80:      1193.75   20.651145  ( -2.185509  -3.937999   0.605689)
  81:      1197.66   16.311664  ( -3.544538   1.933279   0.101730)
  82:      1203.15   15.734917  (  1.399929  -2.013788  -3.117655)
  83:      1222.39    0.526042  (  0.575022   0.392912   0.202515)
  84:      1232.35    0.123627  (  0.088907   0.276383   0.198329)
  85:      1235.60    0.340387  (  0.073735  -0.031884  -0.577870)
  86:      1241.70    0.175171  (  0.101686   0.269863  -0.303324)
  87:      1276.65   17.117302  ( -2.788284   2.045538  -2.271244)
  88:      1296.80    3.009707  ( -1.068121   1.221455  -0.613899)
  89:      1307.58    0.540897  (  0.005839   0.564956  -0.470836)
  90:      1372.92    2.448196  (  0.400538   1.424221  -0.509272)
  91:      1376.37    4.583749  ( -1.820576  -1.125623  -0.047183)
  92:      1377.00    4.815933  (  1.829069  -0.822443  -0.891082)
  93:      1377.84    7.974484  (  1.218448  -1.989690   1.590913)
  94:      1380.61   16.025905  ( -0.154691  -1.251521  -3.799430)
  95:      1382.01    4.675303  ( -1.510870  -1.529889  -0.228064)
  96:      1399.50   13.427092  ( -0.862559  -2.675992   2.349925)
  97:      1400.84   21.750042  ( -3.539241  -3.021850  -0.303703)
  98:      1407.45   11.944347  ( -2.618772   1.970229  -1.097533)
  99:      1415.44    0.627037  ( -0.231962   0.415465   0.632945)
 100:      1443.75    0.215788  ( -0.176689   0.353351  -0.244361)
 101:      1445.71    0.181020  ( -0.215266   0.063847  -0.361392)
 102:      1445.95    0.270884  ( -0.456975   0.175517   0.176781)
 103:      1451.81    0.248580  (  0.231032   0.308908   0.315880)
 104:      1451.95    2.279519  ( -0.037098   0.224704  -1.492532)
 105:      1456.59    1.756790  ( -0.892534   0.890812  -0.408200)
 106:      1457.99    0.288173  ( -0.082130  -0.128917   0.514595)
 107:      1459.48    1.231728  (  0.009248   1.027435  -0.419548)
 108:      1461.20    2.513869  (  0.936665   1.219375   0.386849)
 109:      1468.79    5.107446  ( -1.079233   0.165065   1.978751)
 110:      1471.56    0.222374  ( -0.443454   0.005967  -0.160274)
 111:      1474.54    6.942143  (  1.152945   1.590313  -1.756065)
 112:      1477.16    8.649193  (  1.367620   2.053796   1.600228)
 113:      1480.03    7.068313  (  0.984923  -2.060488  -1.361114)
 114:      1482.91    5.648688  (  0.847215  -1.358844   1.756263)
 115:      1488.66   18.671735  (  3.455230  -2.183809   1.401464)
 116:      1491.81   16.190637  ( -2.784182  -2.809380   0.739155)
 117:      1492.81    2.598650  (  1.023552   1.237304  -0.141664)
 118:      2121.67  896.114376  ( -2.254295  21.424056 -20.785629)
 119:      2123.99  899.394948  ( 27.507072   9.626340   7.077396)
 120:      2184.61  428.428610  ( -8.536088  12.403517  14.202696)
 121:      3040.77   21.062417  (  0.360944  -0.845048  -4.496446)
 122:      3050.65   21.124556  ( -3.238399   1.991562   2.582829)
 123:      3051.22   26.808168  ( -3.629513  -3.581866   0.897241)
 124:      3051.67   13.758941  ( -1.428696  -3.419869   0.149204)
 125:      3055.40   13.976379  ( -2.645005   1.077821  -2.412183)
 126:      3057.09    2.111635  ( -1.190630  -0.812322   0.184844)
 127:      3057.61   32.269327  ( -3.093977   1.523196  -4.514034)
 128:      3060.71   43.555606  ( -4.542381  -4.630669   1.216258)
 129:      3062.10   30.681084  ( -2.125807   5.092835   0.474404)
 130:      3095.49    8.204216  (  1.546473  -0.730851  -2.297497)
 131:      3133.26   10.202667  ( -2.091899  -2.392079   0.323393)
 132:      3134.67   16.280825  (  3.362007   2.175793   0.493618)
 133:      3136.71   17.381638  ( -0.106617  -4.094741   0.776766)
 134:      3140.13    3.709752  ( -0.435025  -1.824076   0.439605)
 135:      3140.82    6.721695  ( -1.106495   0.148656  -2.339929)
 136:      3142.90    3.583265  (  0.051254  -1.740037   0.743578)
 137:      3143.47   69.764702  ( -6.891627   3.386063  -3.287059)
 138:      3144.71   34.437045  ( -3.818484  -3.946194   2.069729)
 139:      3145.87    4.583949  (  0.366947   1.646575   1.318366)
 140:      3151.35    8.031832  (  2.618227  -0.479091  -0.973238)
 141:      3162.08    3.717092  ( -1.380591  -0.888431  -1.010816)
 142:      3166.74    3.096534  ( -0.411686  -0.643046   1.585415)
 143:      3168.38   11.806369  ( -0.120299   1.992228  -2.796949)
 144:      3172.96    6.451867  ( -0.472796  -1.042434  -2.267523)
 145:      3181.00    6.544196  ( -0.669460   1.033524   2.242286)
 146:      3182.67    7.445152  ( -0.954105  -0.058658  -2.555659)
 147:      3186.52    5.160213  (  1.481079  -1.080170  -1.341585)
 148:      3191.93    4.855135  ( -0.129098   2.052322  -0.791482)
 149:      3192.93    9.463007  (  2.878197  -1.023349   0.362971)

The first frequency considered to be a vibration is 6
The total number of vibrations considered is 144


--------------------------
THERMOCHEMISTRY AT 298.15K
--------------------------

Temperature         ... 298.15 K
Pressure            ... 1.00 atm
Total Mass          ... 359.08 AMU

Throughout the following assumptions are being made:
  (1) The electronic state is orbitally nondegenerate
  (2) There are no thermally accessible electronically excited states
  (3) Hindered rotations indicated by low frequency modes are not
      treated as such but are treated as vibrations and this may
      cause some error
  (4) All equations used are the standard statistical mechanics
      equations for an ideal gas
  (5) All vibrations are strictly harmonic

freq.      20.55  E(vib)   ...       0.56 
freq.      32.34  E(vib)   ...       0.55 
freq.      58.25  E(vib)   ...       0.51 
freq.      60.81  E(vib)   ...       0.51 
freq.      65.11  E(vib)   ...       0.50 
freq.      71.12  E(vib)   ...       0.50 
freq.      72.96  E(vib)   ...       0.49 
freq.      87.35  E(vib)   ...       0.48 
freq.      96.41  E(vib)   ...       0.47 
freq.     100.00  E(vib)   ...       0.46 
freq.     106.77  E(vib)   ...       0.45 
freq.     131.95  E(vib)   ...       0.42 
freq.     153.56  E(vib)   ...       0.40 
freq.     167.40  E(vib)   ...       0.39 
freq.     181.33  E(vib)   ...       0.37 
freq.     192.02  E(vib)   ...       0.36 
freq.     215.21  E(vib)   ...       0.34 
freq.     217.76  E(vib)   ...       0.33 
freq.     224.97  E(vib)   ...       0.33 
freq.     234.30  E(vib)   ...       0.32 
freq.     257.41  E(vib)   ...       0.30 
freq.     261.80  E(vib)   ...       0.30 
freq.     275.38  E(vib)   ...       0.28 
freq.     279.39  E(vib)   ...       0.28 
freq.     285.85  E(vib)   ...       0.27 
freq.     290.20  E(vib)   ...       0.27 
freq.     296.26  E(vib)   ...       0.27 
freq.     301.59  E(vib)   ...       0.26 
freq.     304.82  E(vib)   ...       0.26 
freq.     316.24  E(vib)   ...       0.25 
freq.     326.10  E(vib)   ...       0.24 
freq.     346.25  E(vib)   ...       0.23 
freq.     348.74  E(vib)   ...       0.23 
freq.     362.21  E(vib)   ...       0.22 
freq.     372.68  E(vib)   ...       0.21 
freq.     387.56  E(vib)   ...       0.20 
freq.     393.40  E(vib)   ...       0.20 
freq.     397.36  E(vib)   ...       0.20 
freq.     406.51  E(vib)   ...       0.19 
freq.     417.52  E(vib)   ...       0.18 
freq.     435.57  E(vib)   ...       0.17 
freq.     437.36  E(vib)   ...       0.17 
freq.     454.94  E(vib)   ...       0.16 
freq.     458.84  E(vib)   ...       0.16 
freq.     468.35  E(vib)   ...       0.16 
freq.     469.58  E(vib)   ...       0.16 
freq.     490.59  E(vib)   ...       0.15 
freq.     511.85  E(vib)   ...       0.14 
freq.     514.77  E(vib)   ...       0.13 
freq.     516.89  E(vib)   ...       0.13 
freq.     582.67  E(vib)   ...       0.11 
freq.     598.14  E(vib)   ...       0.10 
freq.     713.41  E(vib)   ...       0.07 
freq.     787.46  E(vib)   ...       0.05 
freq.     797.14  E(vib)   ...       0.05 
freq.     837.82  E(vib)   ...       0.04 
freq.     838.74  E(vib)   ...       0.04 
freq.     931.67  E(vib)   ...       0.03 
freq.     945.31  E(vib)   ...       0.03 
freq.     946.84  E(vib)   ...       0.03 
freq.     947.15  E(vib)   ...       0.03 
freq.     949.83  E(vib)   ...       0.03 
freq.     950.71  E(vib)   ...       0.03 
freq.     952.77  E(vib)   ...       0.03 
freq.     954.60  E(vib)   ...       0.03 
freq.     957.07  E(vib)   ...       0.03 
freq.     963.26  E(vib)   ...       0.03 
freq.    1016.35  E(vib)   ...       0.02 
freq.    1026.04  E(vib)   ...       0.02 
freq.    1026.51  E(vib)   ...       0.02 
freq.    1030.62  E(vib)   ...       0.02 
freq.    1032.27  E(vib)   ...       0.02 
freq.    1036.27  E(vib)   ...       0.02 
freq.    1153.32  E(vib)   ...       0.01 
freq.    1193.75  E(vib)   ...       0.01 
freq.    1197.66  E(vib)   ...       0.01 
freq.    1203.15  E(vib)   ...       0.01 
freq.    1222.39  E(vib)   ...       0.01 
freq.    1232.35  E(vib)   ...       0.01 
freq.    1235.60  E(vib)   ...       0.01 
freq.    1241.70  E(vib)   ...       0.01 
freq.    1276.65  E(vib)   ...       0.01 
freq.    1296.80  E(vib)   ...       0.01 
freq.    1307.58  E(vib)   ...       0.01 
freq.    1372.92  E(vib)   ...       0.01 
freq.    1376.37  E(vib)   ...       0.01 
freq.    1377.00  E(vib)   ...       0.01 
freq.    1377.84  E(vib)   ...       0.01 
freq.    1380.61  E(vib)   ...       0.01 
freq.    1382.01  E(vib)   ...       0.01 
freq.    1399.50  E(vib)   ...       0.00 
freq.    1400.84  E(vib)   ...       0.00 
freq.    1407.45  E(vib)   ...       0.00 
freq.    1415.44  E(vib)   ...       0.00 
freq.    1443.75  E(vib)   ...       0.00 
freq.    1445.71  E(vib)   ...       0.00 
freq.    1445.95  E(vib)   ...       0.00 
freq.    1451.81  E(vib)   ...       0.00 
freq.    1451.95  E(vib)   ...       0.00 
freq.    1456.59  E(vib)   ...       0.00 
freq.    1457.99  E(vib)   ...       0.00 
freq.    1459.48  E(vib)   ...       0.00 
freq.    1461.20  E(vib)   ...       0.00 
freq.    1468.79  E(vib)   ...       0.00 
freq.    1471.56  E(vib)   ...       0.00 
freq.    1474.54  E(vib)   ...       0.00 
freq.    1477.16  E(vib)   ...       0.00 
freq.    1480.03  E(vib)   ...       0.00 
freq.    1482.91  E(vib)   ...       0.00 
freq.    1488.66  E(vib)   ...       0.00 
freq.    1491.81  E(vib)   ...       0.00 
freq.    1492.81  E(vib)   ...       0.00 
freq.    2121.67  E(vib)   ...       0.00 
freq.    2123.99  E(vib)   ...       0.00 
freq.    2184.61  E(vib)   ...       0.00 
freq.    3040.77  E(vib)   ...       0.00 
freq.    3050.65  E(vib)   ...       0.00 
freq.    3051.22  E(vib)   ...       0.00 
freq.    3051.67  E(vib)   ...       0.00 
freq.    3055.40  E(vib)   ...       0.00 
freq.    3057.09  E(vib)   ...       0.00 
freq.    3057.61  E(vib)   ...       0.00 
freq.    3060.71  E(vib)   ...       0.00 
freq.    3062.10  E(vib)   ...       0.00 
freq.    3095.49  E(vib)   ...       0.00 
freq.    3133.26  E(vib)   ...       0.00 
freq.    3134.67  E(vib)   ...       0.00 
freq.    3136.71  E(vib)   ...       0.00 
freq.    3140.13  E(vib)   ...       0.00 
freq.    3140.82  E(vib)   ...       0.00 
freq.    3142.90  E(vib)   ...       0.00 
freq.    3143.47  E(vib)   ...       0.00 
freq.    3144.71  E(vib)   ...       0.00 
freq.    3145.87  E(vib)   ...       0.00 
freq.    3151.35  E(vib)   ...       0.00 
freq.    3162.08  E(vib)   ...       0.00 
freq.    3166.74  E(vib)   ...       0.00 
freq.    3168.38  E(vib)   ...       0.00 
freq.    3172.96  E(vib)   ...       0.00 
freq.    3181.00  E(vib)   ...       0.00 
freq.    3182.67  E(vib)   ...       0.00 
freq.    3186.52  E(vib)   ...       0.00 
freq.    3191.93  E(vib)   ...       0.00 
freq.    3192.93  E(vib)   ...       0.00 

------------
INNER ENERGY
------------

The inner energy is: U= E(el) + E(ZPE) + E(vib) + E(rot) + E(trans)
    E(el)   - is the total energy from the electronic structure calculation
              = E(kin-el) + E(nuc-el) + E(el-el) + E(nuc-nuc)
    E(ZPE)  - the the zero temperature vibrational energy from the frequency calculation
    E(vib)  - the the finite temperature correction to E(ZPE) due to population
              of excited vibrational states
    E(rot)  - is the rotational thermal energy
    E(trans)- is the translational thermal energy

Summary of contributions to the inner energy U:
Electronic energy                ...  -2700.58861039 Eh
Zero point energy                ...      0.42279270 Eh     265.31 kcal/mol
Thermal vibrational correction   ...      0.02581416 Eh      16.20 kcal/mol
Thermal rotational correction    ...      0.00141627 Eh       0.89 kcal/mol
Thermal translational correction ...      0.00141627 Eh       0.89 kcal/mol
-----------------------------------------------------------------------
Total thermal energy                  -2700.13717098 Eh


Summary of corrections to the electronic energy:
(perhaps to be used in another calculation)
Total thermal correction                  0.02864670 Eh      17.98 kcal/mol
Non-thermal (ZPE) correction              0.42279270 Eh     265.31 kcal/mol
-----------------------------------------------------------------------
Total correction                          0.45143941 Eh     283.28 kcal/mol


--------
ENTHALPY
--------

The enthalpy is H = U + kB*T
                kB is Boltzmann's constant
Total free energy                 ...  -2700.13717098 Eh 
Thermal Enthalpy correction       ...      0.00094421 Eh       0.59 kcal/mol
-----------------------------------------------------------------------
Total Enthalpy                    ...  -2700.13622677 Eh


Note: Only C1 symmetry has been detected, increase convergence thresholds 
      if your molecule has a higher symmetry. Symmetry factor of 1.0 is   
      used for the rotational entropy correction. 
 

Note: Rotational entropy computed according to Herzberg 
Infrared and Raman Spectra, Chapter V,1, Van Nostrand Reinhold, 1945 
Point Group:  C1, Symmetry Number:   1  
Rotational constants in cm-1:     0.009161     0.008381     0.007277 

Vibrational entropy computed according to the QRRHO of S. Grimme
Chem.Eur.J. 2012 18 9955


-------
ENTROPY
-------

The entropy contributions are T*S = T*(S(el)+S(vib)+S(rot)+S(trans))
     S(el)   - electronic entropy
     S(vib)  - vibrational entropy
     S(rot)  - rotational entropy
     S(trans)- translational entropy
The entropies will be listed as mutliplied by the temperature to get
units of energy

Electronic entropy                ...      0.00000000 Eh      0.00 kcal/mol
Vibrational entropy               ...      0.04555569 Eh     28.59 kcal/mol
Rotational entropy                ...      0.01630778 Eh     10.23 kcal/mol
Translational entropy             ...      0.02068176 Eh     12.98 kcal/mol
-----------------------------------------------------------------------
Final entropy term                ...      0.08254523 Eh     51.80 kcal/mol

In case the symmetry of your molecule has not been determined correctly
or in case you have a reason to use a different symmetry number we print 
out the resulting rotational entropy values for sn=1,12 :
 --------------------------------------------------------
|  sn= 1 | S(rot)=       0.01630778 Eh     10.23 kcal/mol|
|  sn= 2 | S(rot)=       0.01565333 Eh      9.82 kcal/mol|
|  sn= 3 | S(rot)=       0.01527050 Eh      9.58 kcal/mol|
|  sn= 4 | S(rot)=       0.01499887 Eh      9.41 kcal/mol|
|  sn= 5 | S(rot)=       0.01478818 Eh      9.28 kcal/mol|
|  sn= 6 | S(rot)=       0.01461604 Eh      9.17 kcal/mol|
|  sn= 7 | S(rot)=       0.01447049 Eh      9.08 kcal/mol|
|  sn= 8 | S(rot)=       0.01434441 Eh      9.00 kcal/mol|
|  sn= 9 | S(rot)=       0.01423321 Eh      8.93 kcal/mol|
|  sn=10 | S(rot)=       0.01413373 Eh      8.87 kcal/mol|
|  sn=11 | S(rot)=       0.01404374 Eh      8.81 kcal/mol|
|  sn=12 | S(rot)=       0.01396158 Eh      8.76 kcal/mol|
 --------------------------------------------------------


-------------------
GIBBS FREE ENERGY
-------------------

The Gibbs free energy is G = H - T*S

Total enthalpy                    ...  -2700.13622677 Eh 
Total entropy correction          ...     -0.08254523 Eh    -51.80 kcal/mol
-----------------------------------------------------------------------
Final Gibbs free energy         ...  -2700.21877201 Eh

For completeness - the Gibbs free energy minus the electronic energy
G-E(el)                           ...      0.36983838 Eh    232.08 kcal/mol

--------------------------------------------------------------------------
WARNING: No preset parameters were found for the device that Open MPI
detected:

  Local host:            eu-g9-016-3
  Device name:           mlx5_0
  Device vendor ID:      0x02c9
  Device vendor part ID: 4123

Default device parameters will be used, which may result in lower
performance.  You can edit any of the files specified by the
btl_openib_device_param_files MCA parameter to set values for your
device.

NOTE: You can turn off this warning by setting the MCA parameter
      btl_openib_warn_no_device_params_found to 0.
--------------------------------------------------------------------------
--------------------------------------------------------------------------
WARNING: There is at least non-excluded one OpenFabrics device found,
but there are no active ports detected (or Open MPI was unable to use
them).  This is most certainly not what you wanted.  Check your
cables, subnet manager configuration, etc.  The openib BTL will be
ignored for this job.

  Local host: eu-g9-016-3
--------------------------------------------------------------------------

Timings for individual modules:

Sum of individual times         ...     8356.508 sec (= 139.275 min)
GTO integral calculation        ...      243.935 sec (=   4.066 min)   2.9 %
SCF iterations                  ...     1785.687 sec (=  29.761 min)  21.4 %
SCF Gradient evaluation         ...      581.612 sec (=   9.694 min)   7.0 %
Geometry relaxation             ...        5.168 sec (=   0.086 min)   0.1 %
Analytical frequency calculation...     5740.105 sec (=  95.668 min)  68.7 %
                             ****ORCA TERMINATED NORMALLY****
TOTAL RUN TIME: 0 days 2 hours 19 minutes 29 seconds 307 msec
