
                                 *****************
                                 * O   R   C   A *
                                 *****************

           --- An Ab Initio, DFT and Semiempirical electronic structure package ---

                  #######################################################
                  #                        -***-                        #
                  #          Department of theory and spectroscopy      #
                  #               Directorship: Frank Neese             #
                  #        Max Planck Institute fuer Kohlenforschung    #
                  #                Kaiser Wilhelm Platz 1               #
                  #                 D-45470 Muelheim/Ruhr               #
                  #                      Germany                        #
                  #                                                     #
                  #                  All rights reserved                #
                  #                        -***-                        #
                  #######################################################


                         Program Version 4.2.0 -  RELEASE  -


 With contributions from (in alphabetic order):
   Daniel Aravena         : Magnetic Suceptibility
   Michael Atanasov       : Ab Initio Ligand Field Theory (pilot matlab implementation)
   Alexander A. Auer      : GIAO ZORA, VPT2
   Ute Becker             : Parallelization
   Giovanni Bistoni       : ED, misc. LED, open-shell LED, HFLED
   Martin Brehm           : Molecular dynamics
   Dmytro Bykov           : SCF Hessian
   Vijay G. Chilkuri      : MRCI spin determinant printing, contributions to CSF-ICE
   Dipayan Datta          : RHF DLPNO-CCSD density
   Achintya Kumar Dutta   : EOM-CC, STEOM-CC
   Dmitry Ganyushin       : Spin-Orbit,Spin-Spin,Magnetic field MRCI
   Miquel Garcia          : C-PCM Hessian, Gaussian charge scheme
   Yang Guo               : DLPNO-NEVPT2, CIM, IAO-localization
   Andreas Hansen         : Spin unrestricted coupled pair/coupled cluster methods
   Benjamin Helmich-Paris : CASSCF linear response (MC-RPA)
   Lee Huntington         : MR-EOM, pCC
   Robert Izsak           : Overlap fitted RIJCOSX, COSX-SCS-MP3, EOM
   Christian Kollmar      : KDIIS, OOCD, Brueckner-CCSD(T), CCSD density
   Simone Kossmann        : Meta GGA functionals, TD-DFT gradient, OOMP2, MP2 Hessian
   Martin Krupicka        : AUTO-CI
   Lucas Lang             : DCDCAS
   Dagmar Lenk            : GEPOL surface, SMD
   Dimitrios Liakos       : Extrapolation schemes; Compound Job, initial MDCI parallelization
   Dimitrios Manganas     : Further ROCIS development; embedding schemes
   Dimitrios Pantazis     : SARC Basis sets
   Taras Petrenko         : DFT Hessian,TD-DFT gradient, ASA, ECA, R-Raman, ABS, FL, XAS/XES, NRVS
   Peter Pinski           : DLPNO-MP2, DLPNO-MP2 Gradient
   Christoph Reimann      : Effective Core Potentials
   Marius Retegan         : Local ZFS, SOC
   Christoph Riplinger    : Optimizer, TS searches, QM/MM, DLPNO-CCSD(T), (RO)-DLPNO pert. Triples
   Tobias Risthaus        : Range-separated hybrids, TD-DFT gradient, RPA, STAB
   Michael Roemelt        : Original ROCIS implementation
   Masaaki Saitow         : Open-shell DLPNO-CCSD energy and density
   Barbara Sandhoefer     : DKH picture change effects
   Avijit Sen             : IP-ROCIS
   Kantharuban Sivalingam : CASSCF convergence, NEVPT2, FIC-MRCI
   Bernardo de Souza      : ESD, SOC TD-DFT
   Georgi Stoychev        : AutoAux, RI-MP2 NMR
   Willem Van den Heuvel  : Paramagnetic NMR
   Boris Wezisla          : Elementary symmetry handling
   Frank Wennmohs         : Technical directorship


 We gratefully acknowledge several colleagues who have allowed us to
 interface, adapt or use parts of their codes:
   Stefan Grimme, W. Hujo, H. Kruse,             : VdW corrections, initial TS optimization,
                  C. Bannwarth                     DFT functionals, gCP, sTDA/sTD-DF
   Ed Valeev, F. Pavosevic, A. Kumar             : LibInt (2-el integral package), F12 methods
   Garnet Chan, S. Sharma, J. Yang, R. Olivares  : DMRG
   Ulf Ekstrom                                   : XCFun DFT Library
   Mihaly Kallay                                 : mrcc  (arbitrary order and MRCC methods)
   Andreas Klamt, Michael Diedenhofen            : otool_cosmo (COSMO solvation model)
   Jiri Pittner, Ondrej Demel                    : Mk-CCSD
   Frank Weinhold                                : gennbo (NPA and NBO analysis)
   Christopher J. Cramer and Donald G. Truhlar   : smd solvation model
   Lars Goerigk                                  : TD-DFT with DH, B97 family of functionals
   V. Asgeirsson, H. Jonsson                     : NEB implementation
   FAccTs GmbH                                   : IRC, NEB, NEB-TS, Multilevel, MM, QM/MM, CI optimization
   S Lehtola, MJT Oliveira, MAL Marques          : LibXC Library


 Your calculation uses the libint2 library for the computation of 2-el integrals
 For citations please refer to: http://libint.valeyev.net

 Your ORCA version has been built with support for libXC version: 4.2.3
 For citations please refer to: https://tddft.org/programs/libxc/

 This ORCA versions uses:
   CBLAS   interface :  Fast vector & matrix operations
   LAPACKE interface :  Fast linear algebra routines
   SCALAPACK package :  Parallel linear algebra routines




***************************************
The coordinates will be read from file: xtbopt.xyz
***************************************


Your calculation utilizes the atom-pairwise dispersion correction
with the Becke-Johnson damping scheme (D3BJ)
Cite in your paper:
S.Grimme, S.Ehrlich, L.Goerigk, J Comput Chem, (2011), 32, 1456–1465 
S.Grimme, J.Antony, S.Ehrlich and H.Krieg, J.Chem.Phys., 132, (2010), 154104 
   

----- Orbital basis set information -----
Your calculation utilizes the basis: def2-SVP
   F. Weigend and R. Ahlrichs, Phys. Chem. Chem. Phys. 7, 3297 (2005).

----- AuxJ basis set information -----
Your calculation utilizes the auxiliary basis: def2/J
   F. Weigend, Phys. Chem. Chem. Phys. 8, 1057 (2006).

================================================================================
                                        WARNINGS
                       Please study these warnings very carefully!
================================================================================


WARNING: Split-RI-J cannot be used together with RIJONX
  ===> : Split-RI-J will be disabled

WARNING: Geometry Optimization
  ===> : Switching off AutoStart
         For restart on a previous wavefunction, please use MOREAD

INFO   : the flag for use of LIBINT has been found!

================================================================================
                                       INPUT FILE
================================================================================
NAME = TEP_Ni.inp
|  1> ! PBE0 def2-SVP RIJDX D3BJ opt freq
|  2> %pal nprocs 10 end
|  3> %maxcore 3036
|  4> 
|  5> %basis
|  6>   newgto Ni "def2-TZVP" end
|  7> end
|  8> 
|  9> *xyzfile 0 1 xtbopt.xyz
| 10> 
| 11>                          ****END OF INPUT****
================================================================================

                       *****************************
                       * Geometry Optimization Run *
                       *****************************

Geometry optimization settings:
Update method            Update   .... BFGS
Choice of coordinates    CoordSys .... Z-matrix Internals
Initial Hessian          InHess   .... Almoef's Model

Convergence Tolerances:
Energy Change            TolE     ....  5.0000e-06 Eh
Max. Gradient            TolMAXG  ....  3.0000e-04 Eh/bohr
RMS Gradient             TolRMSG  ....  1.0000e-04 Eh/bohr
Max. Displacement        TolMAXD  ....  4.0000e-03 bohr
RMS Displacement         TolRMSD  ....  2.0000e-03 bohr
Strict Convergence                ....  False
------------------------------------------------------------------------------
                        ORCA OPTIMIZATION COORDINATE SETUP
------------------------------------------------------------------------------

The optimization will be done in new redundant internal coordinates
Making redundant internal coordinates   ...  (new redundants) done
Evaluating the initial hessian          ...  (Almloef) done
Evaluating the coordinates              ...  done
Calculating the B-matrix                .... done
Calculating the G-matrix                .... done
Diagonalizing the G-matrix              .... done
Small eigenvalue found = 9.627e-03
Small eigenvalue found = 1.034e-02
Small eigenvalue found = 1.843e-02
Small eigenvalue found = 2.032e-02
Small eigenvalue found = 2.407e-02
Small eigenvalue found = 2.694e-02
The first mode is                       ....  156
The number of degrees of freedom        ....  147

    -----------------------------------------------------------------
                    Redundant Internal Coordinates


    -----------------------------------------------------------------
         Definition                    Initial Value    Approx d2E/dq
    -----------------------------------------------------------------
      1. B(C   1,O   0)                  1.1407         1.398101   
      2. B(Ni  2,C   1)                  1.8027         1.388103   
      3. B(C   3,Ni  2)                  1.8008         1.397670   
      4. B(O   4,C   3)                  1.1413         1.395322   
      5. B(P   5,Ni  2)                  2.4166         0.489136   
      6. B(C   6,P   5)                  1.8961         0.327169   
      7. B(C   7,C   6)                  1.5336         0.368662   
      8. B(C   8,C   7)                  1.5236         0.382530   
      9. B(C   9,C   8)                  1.5225         0.383975   
     10. B(C  10,C   9)                  1.5221         0.384525   
     11. B(C  11,C  10)                  1.5241         0.381691   
     12. B(C  11,C   6)                  1.5361         0.365280   
     13. B(C  12,P   5)                  1.9282         0.290772   
     14. B(C  13,C  12)                  1.5299         0.373653   
     15. B(C  14,C  12)                  1.5308         0.372455   
     16. B(C  15,C  12)                  1.5346         0.367281   
     17. B(C  16,P   5)                  1.9189         0.300937   
     18. B(C  17,C  16)                  1.5356         0.365917   
     19. B(C  18,C  16)                  1.5276         0.376901   
     20. B(C  19,C  16)                  1.5336         0.368730   
     21. B(C  20,Ni  2)                  1.7976         1.414271   
     22. B(O  21,C  20)                  1.1424         1.389702   
     23. B(H  22,C   6)                  1.0957         0.352592   
     24. B(H  23,C   7)                  1.0881         0.362628   
     25. B(H  24,C   7)                  1.0960         0.352224   
     26. B(H  25,C   8)                  1.0925         0.356805   
     27. B(H  26,C   8)                  1.0925         0.356873   
     28. B(H  27,C   9)                  1.0916         0.357999   
     29. B(H  28,C   9)                  1.0935         0.355520   
     30. B(H  29,C  10)                  1.0940         0.354894   
     31. B(H  30,C  10)                  1.0923         0.357070   
     32. B(H  31,C  11)                  1.0879         0.362938   
     33. B(H  32,C  11)                  1.0955         0.352959   
     34. B(H  33,C  13)                  1.0857         0.365887   
     35. B(H  34,C  13)                  1.0868         0.364351   
     36. B(H  35,C  13)                  1.0900         0.360153   
     37. B(H  36,C  14)                  1.0872         0.363860   
     38. B(H  37,C  14)                  1.0900         0.360064   
     39. B(H  38,C  14)                  1.0855         0.366154   
     40. B(H  39,C  15)                  1.0900         0.360066   
     41. B(H  40,C  15)                  1.0861         0.365284   
     42. B(H  41,C  15)                  1.0894         0.360842   
     43. B(H  42,C  17)                  1.0819         0.370945   
     44. B(H  43,C  17)                  1.0901         0.359960   
     45. B(H  44,C  17)                  1.0896         0.360628   
     46. B(H  45,C  18)                  1.0855         0.366140   
     47. B(H  46,C  18)                  1.0899         0.360284   
     48. B(H  47,C  18)                  1.0874         0.363526   
     49. B(H  48,C  19)                  1.0886         0.361988   
     50. B(H  49,C  19)                  1.0832         0.369172   
     51. B(H  50,C  19)                  1.0896         0.360640   
     52. A(O   0,C   1,Ni  2)          171.8384         0.659195   
     53. A(C   1,Ni  2,C  20)          108.7735         0.754728   
     54. A(C   1,Ni  2,P   5)          109.5327         0.644589   
     55. A(C   3,Ni  2,P   5)          108.6320         0.645453   
     56. A(C   3,Ni  2,C  20)          112.6020         0.755763   
     57. A(P   5,Ni  2,C  20)          105.8683         0.646942   
     58. A(C   1,Ni  2,C   3)          111.2642         0.752951   
     59. A(Ni  2,C   3,O   4)          170.9464         0.659825   
     60. A(Ni  2,P   5,C   6)          124.2826         0.465316   
     61. A(Ni  2,P   5,C  16)          109.2055         0.458265   
     62. A(C   6,P   5,C  16)          102.9830         0.387432   
     63. A(C  12,P   5,C  16)          109.7190         0.379571   
     64. A(Ni  2,P   5,C  12)          109.8723         0.455404   
     65. A(C   6,P   5,C  12)           99.9259         0.385120   
     66. A(C   7,C   6,C  11)          105.7879         0.361144   
     67. A(P   5,C   6,H  22)          103.2613         0.335582   
     68. A(C  11,C   6,H  22)          108.2443         0.322012   
     69. A(P   5,C   6,C  11)          113.3422         0.376393   
     70. A(C   7,C   6,H  22)          106.8992         0.322499   
     71. A(P   5,C   6,C   7)          118.7596         0.376993   
     72. A(C   8,C   7,H  24)          108.3246         0.324403   
     73. A(H  23,C   7,H  24)          106.2630         0.290150   
     74. A(C   6,C   7,C   8)          112.3363         0.364001   
     75. A(C   8,C   7,H  23)          110.7824         0.325959   
     76. A(C   6,C   7,H  24)          106.7538         0.322443   
     77. A(C   6,C   7,H  23)          112.0409         0.323987   
     78. A(C   9,C   8,H  26)          110.4732         0.325304   
     79. A(H  25,C   8,H  26)          108.3998         0.290010   
     80. A(C   7,C   8,H  26)          109.9913         0.325102   
     81. A(C   9,C   8,H  25)          108.7049         0.325294   
     82. A(C   7,C   8,H  25)          109.2584         0.325092   
     83. A(C   7,C   8,C   9)          109.9748         0.366546   
     84. A(C  10,C   9,H  28)          109.9286         0.325177   
     85. A(C  10,C   9,H  27)          110.0356         0.325549   
     86. A(C   8,C   9,H  27)          110.2080         0.325473   
     87. A(C   8,C   9,C  10)          108.9798         0.366873   
     88. A(H  27,C   9,H  28)          107.9050         0.289989   
     89. A(C   8,C   9,H  28)          109.7740         0.325101   
     90. A(H  29,C  10,H  30)          108.2133         0.289791   
     91. A(C  11,C  10,H  30)          109.7408         0.325015   
     92. A(C   9,C  10,H  30)          110.4663         0.325410   
     93. A(C  11,C  10,H  29)          108.7677         0.324688   
     94. A(C   9,C  10,H  29)          108.5028         0.325083   
     95. A(C   9,C  10,C  11)          111.0777         0.366498   
     96. A(C  10,C  11,H  32)          108.8473         0.324397   
     97. A(C   6,C  11,H  32)          107.6057         0.322067   
     98. A(C  10,C  11,H  31)          109.3592         0.325887   
     99. A(C   6,C  11,H  31)          111.7900         0.323542   
    100. A(C   6,C  11,C  10)          112.1479         0.363292   
    101. A(H  31,C  11,H  32)          106.8992         0.290284   
    102. A(C  14,C  12,C  15)          109.4344         0.362113   
    103. A(C  13,C  12,C  15)          105.6316         0.362311   
    104. A(P   5,C  12,C  15)          106.5976         0.369169   
    105. A(C  13,C  12,C  14)          107.4298         0.363178   
    106. A(P   5,C  12,C  14)          115.6122         0.370058   
    107. A(P   5,C  12,C  13)          111.6808         0.370262   
    108. A(C  12,C  13,H  35)          108.9280         0.324338   
    109. A(H  34,C  13,H  35)          107.5919         0.291383   
    110. A(H  33,C  13,H  35)          107.4116         0.291576   
    111. A(H  33,C  13,H  34)          109.7970         0.292108   
    112. A(C  12,C  13,H  34)          111.2731         0.324956   
    113. A(C  12,C  13,H  33)          111.6730         0.325181   
    114. A(H  37,C  14,H  38)          107.3643         0.291598   
    115. A(H  36,C  14,H  38)          108.9102         0.292079   
    116. A(C  12,C  14,H  38)          112.7028         0.325048   
    117. A(H  36,C  14,H  37)          107.4122         0.291310   
    118. A(C  12,C  14,H  37)          108.2623         0.324154   
    119. A(C  12,C  14,H  36)          111.9495         0.324713   
    120. A(H  40,C  15,H  41)          108.0592         0.291588   
    121. A(H  39,C  15,H  41)          108.0796         0.290929   
    122. A(C  12,C  15,H  41)          109.7925         0.323525   
    123. A(H  39,C  15,H  40)          107.9779         0.291489   
    124. A(C  12,C  15,H  40)          113.0805         0.324175   
    125. A(C  12,C  15,H  39)          109.7092         0.323411   
    126. A(C  18,C  16,C  19)          108.3876         0.363092   
    127. A(C  17,C  16,C  19)          104.2228         0.361263   
    128. A(P   5,C  16,C  19)          112.1682         0.371609   
    129. A(C  17,C  16,C  18)          111.1347         0.362617   
    130. A(P   5,C  16,C  18)          113.7959         0.373014   
    131. A(P   5,C  16,C  17)          106.7259         0.371119   
    132. A(H  42,C  17,H  44)          107.9726         0.292267   
    133. A(C  16,C  17,H  44)          109.4889         0.323296   
    134. A(H  42,C  17,H  43)          107.9385         0.292182   
    135. A(C  16,C  17,H  43)          109.1355         0.323198   
    136. A(C  16,C  17,H  42)          114.1202         0.324797   
    137. A(H  43,C  17,H  44)          108.0084         0.290889   
    138. A(H  46,C  18,H  47)          107.5973         0.291296   
    139. A(H  45,C  18,H  47)          108.6765         0.292035   
    140. A(C  16,C  18,H  47)          110.9307         0.325297   
    141. A(H  45,C  18,H  46)          107.7662         0.291624   
    142. A(C  16,C  18,H  46)          108.9555         0.324819   
    143. A(C  16,C  18,H  45)          112.7386         0.325681   
    144. A(H  49,C  19,H  50)          107.2466         0.292048   
    145. A(H  48,C  19,H  50)          107.4400         0.291147   
    146. A(C  16,C  19,H  50)          108.8449         0.323704   
    147. A(H  48,C  19,H  49)          109.3441         0.292220   
    148. A(C  16,C  19,H  49)          113.0094         0.324950   
    149. A(C  16,C  19,H  48)          110.7441         0.323902   
    150. A(Ni  2,C  20,O  21)          171.3846         0.660830   
    151. D(C   3,Ni  2,C   1,O   0)     70.0020         0.008880   
    152. D(P   5,Ni  2,C   1,O   0)   -169.8772         0.008880   
    153. D(C  20,Ni  2,C   1,O   0)    -54.5991         0.008880   
    154. D(O   4,C   3,Ni  2,C   1)    -63.3994         0.008986   
    155. D(O   4,C   3,Ni  2,C  20)     59.0176         0.008986   
    156. D(O   4,C   3,Ni  2,P   5)    175.9485         0.008986   
    157. D(C  12,P   5,Ni  2,C   1)     57.1646         0.001831   
    158. D(C  12,P   5,Ni  2,C  20)    -59.9552         0.001831   
    159. D(C  16,P   5,Ni  2,C   1)    177.5506         0.001831   
    160. D(C   6,P   5,Ni  2,C  20)   -177.8745         0.001831   
    161. D(C   6,P   5,Ni  2,C   3)     60.9613         0.001831   
    162. D(C  16,P   5,Ni  2,C   3)    -60.7334         0.001831   
    163. D(C   6,P   5,Ni  2,C   1)    -60.7547         0.001831   
    164. D(C  16,P   5,Ni  2,C  20)     60.4308         0.001831   
    165. D(C  12,P   5,Ni  2,C   3)    178.8806         0.001831   
    166. D(H  22,C   6,P   5,Ni  2)    171.0435         0.003048   
    167. D(H  22,C   6,P   5,C  16)    -64.5029         0.003048   
    168. D(H  22,C   6,P   5,C  12)     48.5677         0.003048   
    169. D(C   7,C   6,P   5,C  12)    166.6037         0.003048   
    170. D(C   7,C   6,P   5,C  16)     53.5330         0.003048   
    171. D(C  11,C   6,P   5,C  12)    -68.3057         0.003048   
    172. D(C  11,C   6,P   5,C  16)    178.6236         0.003048   
    173. D(C   7,C   6,P   5,Ni  2)    -70.9206         0.003048   
    174. D(C  11,C   6,P   5,Ni  2)     54.1700         0.003048   
    175. D(H  24,C   7,C   6,P   5)   -171.8710         0.010870   
    176. D(H  23,C   7,C   6,P   5)    -55.9329         0.010870   
    177. D(C   8,C   7,C   6,H  22)   -174.3509         0.010870   
    178. D(H  23,C   7,C   6,H  22)     60.1850         0.010870   
    179. D(C   8,C   7,C   6,C  11)    -59.1417         0.010870   
    180. D(C   8,C   7,C   6,P   5)     69.5311         0.010870   
    181. D(H  23,C   7,C   6,C  11)    175.3943         0.010870   
    182. D(H  24,C   7,C   6,H  22)    -55.7530         0.010870   
    183. D(H  24,C   7,C   6,C  11)     59.4562         0.010870   
    184. D(H  26,C   8,C   7,H  24)     65.3233         0.011655   
    185. D(H  26,C   8,C   7,H  23)    -50.8591         0.011655   
    186. D(H  26,C   8,C   7,C   6)   -177.0073         0.011655   
    187. D(H  25,C   8,C   7,C   6)    -58.1324         0.011655   
    188. D(H  25,C   8,C   7,H  23)     68.0158         0.011655   
    189. D(C   9,C   8,C   7,C   6)     61.1055         0.011655   
    190. D(C   9,C   8,C   7,H  24)    -56.5639         0.011655   
    191. D(C   9,C   8,C   7,H  23)   -172.7464         0.011655   
    192. D(H  25,C   8,C   7,H  24)   -175.8018         0.011655   
    193. D(H  28,C   9,C   8,H  26)    -58.5235         0.011738   
    194. D(H  28,C   9,C   8,H  25)   -177.3476         0.011738   
    195. D(H  28,C   9,C   8,C   7)     63.0767         0.011738   
    196. D(H  27,C   9,C   8,H  26)     60.1923         0.011738   
    197. D(H  27,C   9,C   8,H  25)    -58.6319         0.011738   
    198. D(H  27,C   9,C   8,C   7)   -178.2075         0.011738   
    199. D(C  10,C   9,C   8,H  26)   -178.9664         0.011738   
    200. D(C  10,C   9,C   8,H  25)     62.2095         0.011738   
    201. D(C  10,C   9,C   8,C   7)    -57.3661         0.011738   
    202. D(H  30,C  10,C   9,H  28)     58.5242         0.011770   
    203. D(H  30,C  10,C   9,C   8)    178.8719         0.011770   
    204. D(H  29,C  10,C   9,H  28)    176.9939         0.011770   
    205. D(H  29,C  10,C   9,H  27)     58.2886         0.011770   
    206. D(H  29,C  10,C   9,C   8)    -62.6583         0.011770   
    207. D(C  11,C  10,C   9,H  28)    -63.4959         0.011770   
    208. D(H  30,C  10,C   9,H  27)    -60.1811         0.011770   
    209. D(C  11,C  10,C   9,H  27)    177.7988         0.011770   
    210. D(C  11,C  10,C   9,C   8)     56.8518         0.011770   
    211. D(C  10,C  11,C   6,H  22)    172.0819         0.010684   
    212. D(C  10,C  11,C   6,C   7)     57.7967         0.010684   
    213. D(C  10,C  11,C   6,P   5)    -74.0071         0.010684   
    214. D(H  32,C  11,C  10,H  30)    -62.6695         0.011606   
    215. D(H  32,C  11,C  10,H  29)    179.1236         0.011606   
    216. D(H  32,C  11,C  10,C   9)     59.7718         0.011606   
    217. D(H  31,C  11,C  10,H  29)    -64.4210         0.011606   
    218. D(H  31,C  11,C  10,H  30)     53.7859         0.011606   
    219. D(C   6,C  11,C  10,H  30)    178.3834         0.011606   
    220. D(H  31,C  11,C  10,C   9)    176.2272         0.011606   
    221. D(C   6,C  11,C  10,H  29)     60.1765         0.011606   
    222. D(H  32,C  11,C   6,H  22)     52.4066         0.010684   
    223. D(H  32,C  11,C   6,C   7)    -61.8786         0.010684   
    224. D(C   6,C  11,C  10,C   9)    -59.1753         0.011606   
    225. D(H  32,C  11,C   6,P   5)    166.3176         0.010684   
    226. D(H  31,C  11,C   6,H  22)    -64.6776         0.010684   
    227. D(H  31,C  11,C   6,C   7)   -178.9627         0.010684   
    228. D(H  31,C  11,C   6,P   5)     49.2335         0.010684   
    229. D(C  15,C  12,P   5,C   6)     94.8612         0.002718   
    230. D(C  15,C  12,P   5,Ni  2)    -37.3057         0.002718   
    231. D(C  14,C  12,P   5,C  16)     80.7551         0.002718   
    232. D(C  14,C  12,P   5,C   6)    -27.0035         0.002718   
    233. D(C  14,C  12,P   5,Ni  2)   -159.1704         0.002718   
    234. D(C  13,C  12,P   5,C  16)    -42.4781         0.002718   
    235. D(C  13,C  12,P   5,C   6)   -150.2366         0.002718   
    236. D(C  15,C  12,P   5,C  16)   -157.3803         0.002718   
    237. D(C  13,C  12,P   5,Ni  2)     77.5965         0.002718   
    238. D(H  35,C  13,C  12,C  15)    -46.4763         0.011148   
    239. D(H  35,C  13,C  12,P   5)   -161.9716         0.011148   
    240. D(H  34,C  13,C  12,C  15)     71.9736         0.011148   
    241. D(H  34,C  13,C  12,C  14)   -171.2841         0.011148   
    242. D(H  34,C  13,C  12,P   5)    -43.5217         0.011148   
    243. D(H  33,C  13,C  12,C  15)   -164.9452         0.011148   
    244. D(H  35,C  13,C  12,C  14)     70.2660         0.011148   
    245. D(H  33,C  13,C  12,C  14)    -48.2029         0.011148   
    246. D(H  33,C  13,C  12,P   5)     79.5595         0.011148   
    247. D(H  38,C  14,C  12,C  15)    -52.8233         0.011081   
    248. D(H  38,C  14,C  12,C  13)   -167.0441         0.011081   
    249. D(H  38,C  14,C  12,P   5)     67.5116         0.011081   
    250. D(H  37,C  14,C  12,C  15)     65.7790         0.011081   
    251. D(H  37,C  14,C  12,C  13)    -48.4418         0.011081   
    252. D(H  37,C  14,C  12,P   5)   -173.8861         0.011081   
    253. D(H  36,C  14,C  12,C  15)   -176.0095         0.011081   
    254. D(H  36,C  14,C  12,C  13)     69.7697         0.011081   
    255. D(H  36,C  14,C  12,P   5)    -55.6746         0.011081   
    256. D(H  41,C  15,C  12,C  14)    -47.9603         0.010794   
    257. D(H  41,C  15,C  12,C  13)     67.4156         0.010794   
    258. D(H  41,C  15,C  12,P   5)   -173.6569         0.010794   
    259. D(H  40,C  15,C  12,C  14)     72.8024         0.010794   
    260. D(H  40,C  15,C  12,C  13)   -171.8216         0.010794   
    261. D(H  40,C  15,C  12,P   5)    -52.8942         0.010794   
    262. D(H  39,C  15,C  12,C  14)   -166.5978         0.010794   
    263. D(H  39,C  15,C  12,C  13)    -51.2218         0.010794   
    264. D(H  39,C  15,C  12,P   5)     67.7056         0.010794   
    265. D(C  19,C  16,P   5,C   6)    165.3261         0.002806   
    266. D(C  19,C  16,P   5,Ni  2)    -60.8510         0.002806   
    267. D(C  18,C  16,P   5,C  12)    -63.8712         0.002806   
    268. D(C  18,C  16,P   5,C   6)     41.8259         0.002806   
    269. D(C  18,C  16,P   5,Ni  2)    175.6489         0.002806   
    270. D(C  17,C  16,P   5,C  12)    173.1737         0.002806   
    271. D(C  17,C  16,P   5,C   6)    -81.1292         0.002806   
    272. D(C  19,C  16,P   5,C  12)     59.6290         0.002806   
    273. D(C  17,C  16,P   5,Ni  2)     52.6937         0.002806   
    274. D(H  43,C  17,C  16,P   5)    -66.7997         0.010719   
    275. D(H  42,C  17,C  16,C  19)    172.8910         0.010719   
    276. D(H  42,C  17,C  16,C  18)    -70.5662         0.010719   
    277. D(H  42,C  17,C  16,P   5)     54.0343         0.010719   
    278. D(H  44,C  17,C  16,C  19)    -65.9721         0.010719   
    279. D(H  44,C  17,C  16,C  18)     50.5706         0.010719   
    280. D(H  44,C  17,C  16,P   5)    175.1711         0.010719   
    281. D(H  43,C  17,C  16,C  19)     52.0570         0.010719   
    282. D(H  43,C  17,C  16,C  18)    168.5998         0.010719   
    283. D(H  47,C  18,C  16,C  19)    -63.7769         0.011332   
    284. D(H  47,C  18,C  16,C  17)   -177.7359         0.011332   
    285. D(H  47,C  18,C  16,P   5)     61.7549         0.011332   
    286. D(H  46,C  18,C  16,C  19)     54.4919         0.011332   
    287. D(H  46,C  18,C  16,C  17)    -59.4671         0.011332   
    288. D(H  46,C  18,C  16,P   5)   -179.9763         0.011332   
    289. D(H  45,C  18,C  16,C  19)    174.0799         0.011332   
    290. D(H  45,C  18,C  16,C  17)     60.1209         0.011332   
    291. D(H  45,C  18,C  16,P   5)    -60.3882         0.011332   
    292. D(H  50,C  19,C  16,C  18)    -76.6237         0.010873   
    293. D(H  50,C  19,C  16,C  17)     41.8157         0.010873   
    294. D(H  50,C  19,C  16,P   5)    156.8945         0.010873   
    295. D(H  49,C  19,C  16,C  18)     42.4081         0.010873   
    296. D(H  49,C  19,C  16,C  17)    160.8476         0.010873   
    297. D(H  49,C  19,C  16,P   5)    -84.0737         0.010873   
    298. D(H  48,C  19,C  16,C  18)    165.4780         0.010873   
    299. D(H  48,C  19,C  16,C  17)    -76.0826         0.010873   
    300. D(H  48,C  19,C  16,P   5)     38.9962         0.010873   
    301. D(O  21,C  20,Ni  2,P   5)    157.1360         0.009171   
    302. D(O  21,C  20,Ni  2,C   3)    -84.3016         0.009171   
    303. D(O  21,C  20,Ni  2,C   1)     39.5070         0.009171   
    -----------------------------------------------------------------

Number of atoms                         .... 51
Number of degrees of freedom            .... 303

         *************************************************************
         *                GEOMETRY OPTIMIZATION CYCLE   1            *
         *************************************************************
---------------------------------
CARTESIAN COORDINATES (ANGSTROEM)
---------------------------------
  O      5.275913    2.567668    1.249292
  C      4.866670    1.596462    0.812727
  Ni     4.139808    0.009847    0.360991
  C      2.341546    0.070308    0.435819
  O      1.224478    0.139140    0.659348
  P      4.799837   -0.569545   -1.890405
  C      4.390987    0.468207   -3.423744
  C      2.939823    0.514998   -3.917578
  C      2.028954    1.281108   -2.966471
  C      2.500597    2.723505   -2.843480
  C      3.945503    2.732787   -2.364877
  C      4.839435    1.932586   -3.304874
  C      6.723285   -0.610015   -2.019655
  C      7.303383   -1.891407   -1.417788
  C      7.294710   -0.467531   -3.432657
  C      7.245918    0.533566   -1.139797
  C      4.084720   -2.294082   -2.333793
  C      2.577982   -2.235772   -2.043066
  C      4.351229   -2.719453   -3.776552
  C      4.606149   -3.393984   -1.400995
  C      4.832832   -1.266541    1.420229
  O      5.261719   -1.961452    2.219108
  H      4.981305   -0.008233   -4.214418
  H      2.543449   -0.478906   -4.115047
  H      2.950538    1.038095   -4.880654
  H      2.065441    0.815155   -1.978990
  H      0.998209    1.245529   -3.326674
  H      1.869569    3.267734   -2.138360
  H      2.426360    3.221055   -3.814376
  H      3.984728    2.278738   -1.370363
  H      4.315518    3.757563   -2.287151
  H      5.872983    2.012904   -2.975065
  H      4.788865    2.376818   -4.304933
  H      7.217943   -2.730105   -2.101853
  H      6.823604   -2.136006   -0.473791
  H      8.364201   -1.739748   -1.218599
  H      6.895485   -1.218315   -4.110068
  H      8.373478   -0.615131   -3.381340
  H      7.122205    0.516519   -3.857056
  H      7.042979    0.313254   -0.091735
  H      6.793140    1.492481   -1.374546
  H      8.324126    0.630147   -1.262351
  H      2.064184   -1.420049   -2.534152
  H      2.425124   -2.130668   -0.968860
  H      2.110227   -3.167321   -2.360324
  H      3.917750   -2.037987   -4.501776
  H      3.913496   -3.703728   -3.942053
  H      5.418869   -2.798141   -3.967446
  H      4.672464   -3.031454   -0.376703
  H      5.568687   -3.786463   -1.705728
  H      3.901441   -4.224974   -1.408310

----------------------------
CARTESIAN COORDINATES (A.U.)
----------------------------
  NO LB      ZA    FRAG     MASS         X           Y           Z
   0 O     8.0000    0    15.999    9.970031    4.852189    2.360819
   1 C     6.0000    0    12.011    9.196674    3.016875    1.535832
   2 Ni   28.0000    0    58.700    7.823104    0.018609    0.682174
   3 C     6.0000    0    12.011    4.424881    0.132863    0.823578
   4 O     8.0000    0    15.999    2.313927    0.262937    1.245988
   5 P    15.0000    0    30.974    9.070378   -1.076285   -3.572347
   6 C     6.0000    0    12.011    8.297763    0.884783   -6.469939
   7 C     6.0000    0    12.011    5.555460    0.973206   -7.403149
   8 C     6.0000    0    12.011    3.834168    2.420944   -5.605817
   9 C     6.0000    0    12.011    4.725444    5.146679   -5.373398
  10 C     6.0000    0    12.011    7.455919    5.164218   -4.468970
  11 C     6.0000    0    12.011    9.145207    3.652058   -6.245307
  12 C     6.0000    0    12.011   12.705168   -1.152761   -3.816596
  13 C     6.0000    0    12.011   13.801393   -3.574242   -2.679231
  14 C     6.0000    0    12.011   13.785004   -0.883506   -6.486781
  15 C     6.0000    0    12.011   13.692801    1.008294   -2.153905
  16 C     6.0000    0    12.011    7.719003   -4.335186   -4.410230
  17 C     6.0000    0    12.011    4.871680   -4.224997   -3.860835
  18 C     6.0000    0    12.011    8.222631   -5.139022   -7.136649
  19 C     6.0000    0    12.011    8.704360   -6.413700   -2.647496
  20 C     6.0000    0    12.011    9.132730   -2.393416    2.683844
  21 O     8.0000    0    15.999    9.943209   -3.706608    4.193507
  22 H     1.0000    0     1.008    9.413303   -0.015559   -7.964096
  23 H     1.0000    0     1.008    4.806423   -0.905002   -7.776311
  24 H     1.0000    0     1.008    5.575709    1.961714   -9.223099
  25 H     1.0000    0     1.008    3.903118    1.540420   -3.739749
  26 H     1.0000    0     1.008    1.886342    2.353710   -6.286503
  27 H     1.0000    0     1.008    3.532974    6.175122   -4.040915
  28 H     1.0000    0     1.008    4.585157    6.086913   -7.208127
  29 H     1.0000    0     1.008    7.530045    4.306192   -2.589610
  30 H     1.0000    0     1.008    8.155147    7.100765   -4.322088
  31 H     1.0000    0     1.008   11.098330    3.803837   -5.622059
  32 H     1.0000    0     1.008    9.049643    4.491535   -8.135144
  33 H     1.0000    0     1.008   13.639936   -5.159150   -3.971927
  34 H     1.0000    0     1.008   12.894743   -4.036467   -0.895336
  35 H     1.0000    0     1.008   15.806050   -3.287647   -2.302818
  36 H     1.0000    0     1.008   13.030578   -2.302283   -7.766903
  37 H     1.0000    0     1.008   15.823580   -1.162428   -6.389807
  38 H     1.0000    0     1.008   13.459017    0.976079   -7.288779
  39 H     1.0000    0     1.008   13.309302    0.591963   -0.173354
  40 H     1.0000    0     1.008   12.837175    2.820381   -2.597516
  41 H     1.0000    0     1.008   15.730319    1.190805   -2.385498
  42 H     1.0000    0     1.008    3.900743   -2.683505   -4.788854
  43 H     1.0000    0     1.008    4.582820   -4.026378   -1.830880
  44 H     1.0000    0     1.008    3.987751   -5.985369   -4.460365
  45 H     1.0000    0     1.008    7.403475   -3.851238   -8.507124
  46 H     1.0000    0     1.008    7.395435   -6.999032   -7.449401
  47 H     1.0000    0     1.008   10.240178   -5.287721   -7.497386
  48 H     1.0000    0     1.008    8.829677   -5.728619   -0.711865
  49 H     1.0000    0     1.008   10.523293   -7.155377   -3.223360
  50 H     1.0000    0     1.008    7.372655   -7.984043   -2.661321

--------------------------------
INTERNAL COORDINATES (ANGSTROEM)
--------------------------------
 O      0   0   0     0.000000000000     0.00000000     0.00000000
 C      1   0   0     1.140749690547     0.00000000     0.00000000
 Ni     2   1   0     1.802703188810   171.83842841     0.00000000
 C      3   2   1     1.800833595868   111.26421366    70.00203559
 O      4   3   2     1.141291217533   170.94641245   296.60055679
 P      3   2   1     2.416633182935   109.53266335   190.12278766
 C      6   3   2     1.896106164559   124.28258677   299.24525594
 C      7   6   3     1.533603433945   118.75956425   289.07939297
 C      8   7   6     1.523551829753   112.33632074    69.53110068
 C      9   8   7     1.522525453958   109.97482132    61.10546157
 C     10   9   8     1.522135895729   108.97984823   302.63385617
 C     11  10   9     1.524149483796   111.07769552    56.85181308
 C      6   3   2     1.928210537073   109.87228194    57.16458011
 C     13   6   3     1.529942808076   111.68078149    77.59646142
 C     13   6   3     1.530816941675   115.61221156   200.82964626
 C     13   6   3     1.534624742822   106.59759166   322.69429415
 C      6   3   2     1.918856730917   109.20546255   177.55057122
 C     17   6   3     1.535637607551   106.72589464    52.69372978
 C     17   6   3     1.527586721938   113.79586938   175.64888275
 C     17   6   3     1.533553258659   112.16817144   299.14904755
 C      3   2   1     1.797619311924   108.77350065   305.40091846
 O     21   3   2     1.142389743605   171.38458166    39.50698287
 H      7   6   3     1.095735355329   103.26130584   171.04348702
 H      8   7   6     1.088095701404   112.04091911   304.06706219
 H      8   7   6     1.096020020269   106.75383301   188.12899751
 H      9   8   7     1.092502614361   109.25835888   301.86760393
 H      9   8   7     1.092450189814   109.99134124   182.99273096
 H     10   9   8     1.091592557175   110.20804027   181.79250203
 H     10   9   8     1.093484308646   109.77401384    63.07674928
 H     11  10   9     1.093964068010   108.50277040   297.34166304
 H     11  10   9     1.092299937583   110.46627876   178.87194687
 H     12  11  10     1.087863279987   109.35923104   176.22719077
 H     12  11  10     1.095452586564   108.84729248    59.77177772
 H     14  13   6     1.085660333547   111.67297984    79.55953006
 H     14  13   6     1.086805345429   111.27314049   316.47828648
 H     14  13   6     1.089959931845   108.92801160   198.02838499
 H     15  13   6     1.087172089267   111.94946241   304.32543992
 H     15  13   6     1.090027128048   108.26225027   186.11393917
 H     15  13   6     1.085461667352   112.70280718    67.51164173
 H     16  13   6     1.090025723219   109.70915156    67.70561581
 H     16  13   6     1.086109010893   113.08052071   307.10579797
 H     16  13   6     1.089439911355   109.79253436   186.34307958
 H     18  17   6     1.081922856551   114.12017697    54.03428826
 H     18  17   6     1.090106173837   109.13552717   293.20026047
 H     18  17   6     1.089601185915   109.48889178   175.17113790
 H     19  17   6     1.085472302337   112.73859577   299.61178639
 H     19  17   6     1.089861197131   108.95547235   180.02370481
 H     19  17   6     1.087422124316   110.93070617    61.75491362
 H     20  17   6     1.088576703116   110.74410561    38.99619159
 H     20  17   6     1.083226999707   113.00938913   275.92633461
 H     20  17   6     1.089591965137   108.84489626   156.89449462

---------------------------
INTERNAL COORDINATES (A.U.)
---------------------------
 O      0   0   0     0.000000000000     0.00000000     0.00000000
 C      1   0   0     2.155704502489     0.00000000     0.00000000
 Ni     2   1   0     3.406615327597   171.83842841     0.00000000
 C      3   2   1     3.403082308955   111.26421366    70.00203559
 O      4   3   2     2.156727840187   170.94641245   296.60055679
 P      3   2   1     4.566774881893   109.53266335   190.12278766
 C      6   3   2     3.583121371856   124.28258677   299.24525594
 C      7   6   3     2.898090488197   118.75956425   289.07939297
 C      8   7   6     2.879095709069   112.33632074    69.53110068
 C      9   8   7     2.877156139905   109.97482132    61.10546157
 C     10   9   8     2.876419981539   108.97984823   302.63385617
 C     11  10   9     2.880225111532   111.07769552    56.85181308
 C      6   3   2     3.643789843609   109.87228194    57.16458011
 C     13   6   3     2.891172907826   111.68078149    77.59646142
 C     13   6   3     2.892824780933   115.61221156   200.82964626
 C     13   6   3     2.900020482273   106.59759166   322.69429415
 C      6   3   2     3.626113711665   109.20546255   177.55057122
 C     17   6   3     2.901934519222   106.72589464    52.69372978
 C     17   6   3     2.886720550278   113.79586938   175.64888275
 C     17   6   3     2.897995670648   112.16817144   299.14904755
 C      3   2   1     3.397008192585   108.77350065   305.40091846
 O     21   3   2     2.158803753614   171.38458166    39.50698287
 H      7   6   3     2.070639736826   103.26130584   171.04348702
 H      8   7   6     2.056202883151   112.04091911   304.06706219
 H      8   7   6     2.071177675604   106.75383301   188.12899751
 H      9   8   7     2.064530741736   109.25835888   301.86760393
 H      9   8   7     2.064431673699   109.99134124   182.99273096
 H     10   9   8     2.062810982888   110.20804027   181.79250203
 H     10   9   8     2.066385875082   109.77401384    63.07674928
 H     11  10   9     2.067292488890   108.50277040   297.34166304
 H     11  10   9     2.064147738131   110.46627876   178.87194687
 H     12  11  10     2.055763670326   109.35923104   176.22719077
 H     12  11  10     2.070105381301   108.84729248    59.77177772
 H     14  13   6     2.051600704866   111.67297984    79.55953006
 H     14  13   6     2.053764463743   111.27314049   316.47828648
 H     14  13   6     2.059725768135   108.92801160   198.02838499
 H     15  13   6     2.054457509158   111.94946241   304.32543992
 H     15  13   6     2.059852750555   108.26225027   186.11393917
 H     15  13   6     2.051225280165   112.70280718    67.51164173
 H     16  13   6     2.059850095813   109.70915156    67.70561581
 H     16  13   6     2.052448582171   113.08052071   307.10579797
 H     16  13   6     2.058743071825   109.79253436   186.34307958
 H     18  17   6     2.044537896912   114.12017697    54.03428826
 H     18  17   6     2.060002125449   109.13552717   293.20026047
 H     18  17   6     2.059047836574   109.48889178   175.17113790
 H     19  17   6     2.051245377373   112.73859577   299.61178639
 H     19  17   6     2.059539186564   108.95547235   180.02370481
 H     19  17   6     2.054930006924   110.93070617    61.75491362
 H     20  17   6     2.057111844657   110.74410561    38.99619159
 H     20  17   6     2.047002370315   113.00938913   275.92633461
 H     20  17   6     2.059030411831   108.84489626   156.89449462

---------------------
BASIS SET INFORMATION
---------------------
There are 5 groups of distinct atoms

 Group   1 Type O   : 7s4p1d contracted to 3s2p1d pattern {511/31/1}
 Group   2 Type C   : 7s4p1d contracted to 3s2p1d pattern {511/31/1}
 Group   3 Type Ni  : 17s11p7d1f contracted to 6s4p4d1f pattern {842111/6311/4111/1}
 Group   4 Type P   : 10s7p1d contracted to 4s3p1d pattern {5311/511/1}
 Group   5 Type H   : 4s1p contracted to 2s1p pattern {31/1}

Atom   0O    basis set group =>   1
Atom   1C    basis set group =>   2
Atom   2Ni   basis set group =>   3
Atom   3C    basis set group =>   2
Atom   4O    basis set group =>   1
Atom   5P    basis set group =>   4
Atom   6C    basis set group =>   2
Atom   7C    basis set group =>   2
Atom   8C    basis set group =>   2
Atom   9C    basis set group =>   2
Atom  10C    basis set group =>   2
Atom  11C    basis set group =>   2
Atom  12C    basis set group =>   2
Atom  13C    basis set group =>   2
Atom  14C    basis set group =>   2
Atom  15C    basis set group =>   2
Atom  16C    basis set group =>   2
Atom  17C    basis set group =>   2
Atom  18C    basis set group =>   2
Atom  19C    basis set group =>   2
Atom  20C    basis set group =>   2
Atom  21O    basis set group =>   1
Atom  22H    basis set group =>   5
Atom  23H    basis set group =>   5
Atom  24H    basis set group =>   5
Atom  25H    basis set group =>   5
Atom  26H    basis set group =>   5
Atom  27H    basis set group =>   5
Atom  28H    basis set group =>   5
Atom  29H    basis set group =>   5
Atom  30H    basis set group =>   5
Atom  31H    basis set group =>   5
Atom  32H    basis set group =>   5
Atom  33H    basis set group =>   5
Atom  34H    basis set group =>   5
Atom  35H    basis set group =>   5
Atom  36H    basis set group =>   5
Atom  37H    basis set group =>   5
Atom  38H    basis set group =>   5
Atom  39H    basis set group =>   5
Atom  40H    basis set group =>   5
Atom  41H    basis set group =>   5
Atom  42H    basis set group =>   5
Atom  43H    basis set group =>   5
Atom  44H    basis set group =>   5
Atom  45H    basis set group =>   5
Atom  46H    basis set group =>   5
Atom  47H    basis set group =>   5
Atom  48H    basis set group =>   5
Atom  49H    basis set group =>   5
Atom  50H    basis set group =>   5
---------------------------------
AUXILIARY/J BASIS SET INFORMATION
---------------------------------
There are 5 groups of distinct atoms

 Group   1 Type O   : 12s5p4d2f1g contracted to 6s4p3d1f1g pattern {711111/2111/211/2/1}
 Group   2 Type C   : 12s5p4d2f1g contracted to 6s4p3d1f1g pattern {711111/2111/211/2/1}
 Group   3 Type Ni  : 19s5p5d3f3g contracted to 8s5p5d2f3g pattern {121111111/11111/11111/21/111}
 Group   4 Type P   : 14s5p5d2f1g contracted to 8s4p3d1f1g pattern {71111111/2111/311/2/1}
 Group   5 Type H   : 5s2p1d contracted to 3s1p1d pattern {311/2/1}

Atom   0O    basis set group =>   1
Atom   1C    basis set group =>   2
Atom   2Ni   basis set group =>   3
Atom   3C    basis set group =>   2
Atom   4O    basis set group =>   1
Atom   5P    basis set group =>   4
Atom   6C    basis set group =>   2
Atom   7C    basis set group =>   2
Atom   8C    basis set group =>   2
Atom   9C    basis set group =>   2
Atom  10C    basis set group =>   2
Atom  11C    basis set group =>   2
Atom  12C    basis set group =>   2
Atom  13C    basis set group =>   2
Atom  14C    basis set group =>   2
Atom  15C    basis set group =>   2
Atom  16C    basis set group =>   2
Atom  17C    basis set group =>   2
Atom  18C    basis set group =>   2
Atom  19C    basis set group =>   2
Atom  20C    basis set group =>   2
Atom  21O    basis set group =>   1
Atom  22H    basis set group =>   5
Atom  23H    basis set group =>   5
Atom  24H    basis set group =>   5
Atom  25H    basis set group =>   5
Atom  26H    basis set group =>   5
Atom  27H    basis set group =>   5
Atom  28H    basis set group =>   5
Atom  29H    basis set group =>   5
Atom  30H    basis set group =>   5
Atom  31H    basis set group =>   5
Atom  32H    basis set group =>   5
Atom  33H    basis set group =>   5
Atom  34H    basis set group =>   5
Atom  35H    basis set group =>   5
Atom  36H    basis set group =>   5
Atom  37H    basis set group =>   5
Atom  38H    basis set group =>   5
Atom  39H    basis set group =>   5
Atom  40H    basis set group =>   5
Atom  41H    basis set group =>   5
Atom  42H    basis set group =>   5
Atom  43H    basis set group =>   5
Atom  44H    basis set group =>   5
Atom  45H    basis set group =>   5
Atom  46H    basis set group =>   5
Atom  47H    basis set group =>   5
Atom  48H    basis set group =>   5
Atom  49H    basis set group =>   5
Atom  50H    basis set group =>   5
--------------------------------------------------------------------------
WARNING: No preset parameters were found for the device that Open MPI
detected:

  Local host:            eu-g9-019-2
  Device name:           mlx5_0
  Device vendor ID:      0x02c9
  Device vendor part ID: 4123

Default device parameters will be used, which may result in lower
performance.  You can edit any of the files specified by the
btl_openib_device_param_files MCA parameter to set values for your
device.

NOTE: You can turn off this warning by setting the MCA parameter
      btl_openib_warn_no_device_params_found to 0.
--------------------------------------------------------------------------
--------------------------------------------------------------------------
WARNING: There is at least non-excluded one OpenFabrics device found,
but there are no active ports detected (or Open MPI was unable to use
them).  This is most certainly not what you wanted.  Check your
cables, subnet manager configuration, etc.  The openib BTL will be
ignored for this job.

  Local host: eu-g9-019-2
--------------------------------------------------------------------------


           ************************************************************
           *        Program running with 10 parallel MPI-processes    *
           *              working on a common directory               *
           ************************************************************
------------------------------------------------------------------------------
                           ORCA GTO INTEGRAL CALCULATION
                           -- RI-GTO INTEGRALS CHOSEN --
------------------------------------------------------------------------------

                         BASIS SET STATISTICS AND STARTUP INFO

Gaussian basis set:
 # of primitive gaussian shells          ...  439
 # of primitive gaussian functions       ...  811
 # of contracted shells                  ...  230
 # of contracted basis functions         ...  488
 Highest angular momentum                ...    3
 Maximum contraction depth               ...    8
Auxiliary gaussian basis set:
 # of primitive gaussian shells          ...  774
 # of primitive gaussian functions       ... 2048
 # of contracted shells                  ...  485
 # of contracted aux-basis functions     ... 1439
 Highest angular momentum                ...    4
 Maximum contraction depth               ...   12
Ratio of auxiliary to basis functions    ...  2.95
Integral package used                  ... LIBINT
 One Electron integrals                  ... done
 Ordering auxiliary basis shells         ... done
 Integral threshhold             Thresh  ...  2.500e-11
 Primitive cut-off               TCut    ...  2.500e-12
 Pre-screening matrix                    ... done
 Shell pair data                         ... 
 Ordering of the shell pairs             ... done (   0.003 sec) 21624 of 26565 pairs
 Determination of significant pairs      ... done (   0.000 sec)
 Creation of shell pair data             ... done (   0.002 sec)
 Storage of shell pair data              ... done (   0.127 sec)
 Shell pair data done in (   0.133 sec)
 Computing two index integrals           ... done
 Cholesky decomposition of the V-matrix  ... done


Timings:
 Total evaluation time                   ...   1.574 sec (  0.026 min)
 One electron matrix time                ...   0.264 sec (  0.004 min) = 16.8%
 Schwartz matrix evaluation time         ...   0.123 sec (  0.002 min) =  7.8%
 Two index repulsion integral time       ...   0.081 sec (  0.001 min) =  5.2%
 Cholesky decomposition of V             ...   0.945 sec (  0.016 min) = 60.0%
 Three index repulsion integral time     ...   0.000 sec (  0.000 min) =  0.0%

--------------------------------------------------------------------------
WARNING: No preset parameters were found for the device that Open MPI
detected:

  Local host:            eu-g9-019-2
  Device name:           mlx5_0
  Device vendor ID:      0x02c9
  Device vendor part ID: 4123

Default device parameters will be used, which may result in lower
performance.  You can edit any of the files specified by the
btl_openib_device_param_files MCA parameter to set values for your
device.

NOTE: You can turn off this warning by setting the MCA parameter
      btl_openib_warn_no_device_params_found to 0.
--------------------------------------------------------------------------
--------------------------------------------------------------------------
WARNING: There is at least non-excluded one OpenFabrics device found,
but there are no active ports detected (or Open MPI was unable to use
them).  This is most certainly not what you wanted.  Check your
cables, subnet manager configuration, etc.  The openib BTL will be
ignored for this job.

  Local host: eu-g9-019-2
--------------------------------------------------------------------------


           ************************************************************
           *        Program running with 10 parallel MPI-processes    *
           *              working on a common directory               *
           ************************************************************
-------------------------------------------------------------------------------
                                 ORCA SCF
-------------------------------------------------------------------------------

------------
SCF SETTINGS
------------
Hamiltonian:
 Density Functional     Method          .... DFT(GTOs)
 Exchange Functional    Exchange        .... PBE
   PBE kappa parameter   XKappa         ....  0.804000
   PBE mue parameter    XMuePBE         ....  0.219520
 Correlation Functional Correlation     .... PBE
   PBE beta parameter  CBetaPBE         ....  0.066725
 LDA part of GGA corr.  LDAOpt          .... PW91-LDA
 Gradients option       PostSCFGGA      .... off
 Hybrid DFT is turned on
   Fraction HF Exchange ScalHFX         ....  0.250000
   Scaling of DF-GGA-X  ScalDFX         ....  0.750000
   Scaling of DF-GGA-C  ScalDFC         ....  1.000000
   Scaling of DF-LDA-C  ScalLDAC        ....  1.000000
   Perturbative correction              ....  0.000000
   Density functional embedding theory  .... OFF
   NL short-range parameter             ....  6.900000
 RI-approximation to the Coulomb term is turned on
   Number of auxiliary basis functions  .... 1439
   RIJ-ON(X) (HFX calculated with O(N)) .... on


General Settings:
 Integral files         IntName         .... TEP_Ni
 Hartree-Fock type      HFTyp           .... RHF
 Total Charge           Charge          ....    0
 Multiplicity           Mult            ....    1
 Number of Electrons    NEL             ....  198
 Basis Dimension        Dim             ....  488
 Nuclear Repulsion      ENuc            ....   2804.6111874898 Eh

Convergence Acceleration:
 DIIS                   CNVDIIS         .... on
   Start iteration      DIISMaxIt       ....    12
   Startup error        DIISStart       ....  0.200000
   # of expansion vecs  DIISMaxEq       ....     5
   Bias factor          DIISBfac        ....   1.050
   Max. coefficient     DIISMaxC        ....  10.000
 Newton-Raphson         CNVNR           .... off
 SOSCF                  CNVSOSCF        .... off
 Level Shifting         CNVShift        .... on
   Level shift para.    LevelShift      ....    0.2500
   Turn off err/grad.   ShiftErr        ....    0.0010
 Zerner damping         CNVZerner       .... off
 Static damping         CNVDamp         .... on
   Fraction old density DampFac         ....    0.7000
   Max. Damping (<1)    DampMax         ....    0.9800
   Min. Damping (>=0)   DampMin         ....    0.0000
   Turn off err/grad.   DampErr         ....    0.1000
 Fernandez-Rico         CNVRico         .... off

SCF Procedure:
 Maximum # iterations   MaxIter         ....   125
 SCF integral mode      SCFMode         .... Direct
   Integral package                     .... LIBINT
 Reset frequency        DirectResetFreq ....    20
 Integral Threshold     Thresh          ....  2.500e-11 Eh
 Primitive CutOff       TCut            ....  2.500e-12 Eh

Convergence Tolerance:
 Convergence Check Mode ConvCheckMode   .... Total+1el-Energy
 Convergence forced     ConvForced      .... 0
 Energy Change          TolE            ....  1.000e-08 Eh
 1-El. energy change                    ....  1.000e-05 Eh
 DIIS Error             TolErr          ....  5.000e-07


Diagonalization of the overlap matrix:
Smallest eigenvalue                        ... 1.000e-03
Time for diagonalization                   ...    0.064 sec
Threshold for overlap eigenvalues          ... 1.000e-08
Number of eigenvalues below threshold      ... 0
Time for construction of square roots      ...    0.069 sec
Total time needed                          ...    0.134 sec

-------------------
DFT GRID GENERATION
-------------------

General Integration Accuracy     IntAcc      ...  4.340
Radial Grid Type                 RadialGrid  ... Gauss-Chebyshev
Angular Grid (max. acc.)         AngularGrid ... Lebedev-110
Angular grid pruning method      GridPruning ... 3 (G Style)
Weight generation scheme         WeightScheme... Becke
Basis function cutoff            BFCut       ...    1.0000e-11
Integration weight cutoff        WCut        ...    1.0000e-14
Grids for H and He will be reduced by one unit

# of grid points (after initial pruning)     ...  61044 (   0.0 sec)
# of grid points (after weights+screening)   ...  52936 (   0.1 sec)
nearest neighbour list constructed           ...    0.0 sec
Grid point re-assignment to atoms done       ...    0.0 sec
Grid point division into batches done        ...    0.0 sec
Reduced shell lists constructed in    0.1 sec

Total number of grid points                  ...    52936
Total number of batches                      ...      855
Average number of points per batch           ...       61
Average number of grid points per atom       ...     1038
Average number of shells per batch           ...   122.68 (53.34%)
Average number of basis functions per batch  ...   244.06 (50.01%)
Average number of large shells per batch     ...    75.01 (61.14%)
Average number of large basis fcns per batch ...   151.24 (61.97%)
Maximum spatial batch extension              ...  20.95, 16.98, 13.46 au
Average spatial batch extension              ...   0.30,  0.28,  0.27 au

Time for grid setup =    0.701 sec

------------------------------
INITIAL GUESS: MODEL POTENTIAL
------------------------------
Loading Hartree-Fock densities                     ... done
Calculating cut-offs                               ... done
Setting up the integral package                    ... done
Initializing the effective Hamiltonian             ... done
Starting the Coulomb interaction                   ... done (   0.1 sec)
Reading the grid                                   ... done
Mapping shells                                     ... done
Starting the XC term evaluation                    ... done (   0.2 sec)
  promolecular density results
     # of electrons  =    197.986889774
     EX              =   -204.156908976
     EC              =     -7.064213234
     EX+EC           =   -211.221122210
Transforming the Hamiltonian                       ... done (   0.0 sec)
Diagonalizing the Hamiltonian                      ... done (   0.1 sec)
Back transforming the eigenvectors                 ... done (   0.0 sec)
Now organizing SCF variables                       ... done
                      ------------------
                      INITIAL GUESS DONE (   1.3 sec)
                      ------------------
--------------
SCF ITERATIONS
--------------
ITER       Energy         Delta-E        Max-DP      RMS-DP      [F,P]     Damp
               ***  Starting incremental Fock matrix formation  ***
  0  -2738.0007522845   0.000000000000 0.09852274  0.00132594  0.1557883 0.7000
  1  -2738.2378195768  -0.237067292283 0.04698452  0.00086353  0.1070018 0.7000
                               ***Turning on DIIS***
  2  -2738.3472074458  -0.109387869014 0.13028214  0.00158539  0.0350786 0.0000
  3  -2738.4975173878  -0.150309941982 0.01115791  0.00018017  0.1060229 0.7000
  4  -2738.5182707858  -0.020753397973 0.03437315  0.00056002  0.0456732 0.0000
  5  -2738.5442820667  -0.026011280934 0.01263473  0.00014932  0.0273053 0.0000
  6  -2738.5458603090  -0.001578242312 0.00343602  0.00004586  0.0173862 0.0000
  7  -2738.5461505609  -0.000290251931 0.00325771  0.00002822  0.0036551 0.0000
  8  -2738.5461967335  -0.000046172570 0.00068720  0.00000874  0.0028377 0.0000
  9  -2738.5462059506  -0.000009217053 0.00024877  0.00000453  0.0003714 0.0000
 10  -2738.5462067144  -0.000000763879 0.00012822  0.00000191  0.0001239 0.0000
 11  -2738.5462069532  -0.000000238766 0.00005328  0.00000076  0.0000856 0.0000
 12  -2738.5462069615  -0.000000008278 0.00002022  0.00000034  0.0000404 0.0000
 13  -2738.5462069771  -0.000000015621 0.00001118  0.00000015  0.0000161 0.0000
 14  -2738.5462069674   0.000000009735 0.00000564  0.00000007  0.0000071 0.0000
 15  -2738.5462069569   0.000000010461 0.00000482  0.00000004  0.0000169 0.0000
 16  -2738.5462069655  -0.000000008573 0.00000158  0.00000002  0.0000022 0.0000
 17  -2738.5462069799  -0.000000014360 0.00000066  0.00000001  0.0000012 0.0000
                            ***DIIS convergence achieved***

               *****************************************************
               *                     SUCCESS                       *
               *           SCF CONVERGED AFTER  18 CYCLES          *
               *****************************************************

Setting up the final grid:

General Integration Accuracy     IntAcc      ...  4.670
Radial Grid Type                 RadialGrid  ... Gauss-Chebyshev
Angular Grid (max. acc.)         AngularGrid ... Lebedev-302
Angular grid pruning method      GridPruning ... 3 (G Style)
Weight generation scheme         WeightScheme... Becke
Basis function cutoff            BFCut       ...    1.0000e-11
Integration weight cutoff        WCut        ...    1.0000e-14
Grids for H and He will be reduced by one unit

# of grid points (after initial pruning)     ... 239176 (   0.0 sec)
# of grid points (after weights+screening)   ... 201802 (   4.6 sec)
nearest neighbour list constructed           ...    0.0 sec
Grid point re-assignment to atoms done       ...    0.0 sec
Grid point division into batches done        ...    0.5 sec
Reduced shell lists constructed in    0.8 sec

Total number of grid points                  ...   201802
Total number of batches                      ...     3182
Average number of points per batch           ...       63
Average number of grid points per atom       ...     3957
Average number of shells per batch           ...   112.07 (48.73%)
Average number of basis functions per batch  ...   219.49 (44.98%)
Average number of large shells per batch     ...    68.03 (60.71%)
Average number of large basis fcns per batch ...   137.51 (62.65%)
Maximum spatial batch extension              ...  14.31, 13.27, 14.68 au
Average spatial batch extension              ...   0.19,  0.19,  0.19 au

Final grid set up in    6.4 sec
Final integration                            ... done (   1.2 sec)
Change in XC energy                          ...     0.001288940
Integrated number of electrons               ...   197.998767662
Previous integrated no of electrons          ...   198.000216640

----------------
TOTAL SCF ENERGY
----------------

Total Energy       :        -2738.54491802 Eh          -74519.59572 eV

Components:
Nuclear Repulsion  :         2804.61118749 Eh           76317.35031 eV
Electronic Energy  :        -5543.15610551 Eh         -150836.94603 eV
One Electron Energy:        -9361.10070215 Eh         -254728.50025 eV
Two Electron Energy:         3817.94459664 Eh          103891.55422 eV

Virial components:
Potential Energy   :        -5465.53934644 Eh         -148724.88664 eV
Kinetic Energy     :         2726.99442842 Eh           74205.29092 eV
Virial Ratio       :            2.00423561


DFT components:
N(Alpha)           :       98.999383830793 electrons
N(Beta)            :       98.999383830793 electrons
N(Total)           :      197.998767661585 electrons
E(X)               :     -154.918921202175 Eh       
E(C)               :       -7.066377067455 Eh       
E(XC)              :     -161.985298269630 Eh       
DFET-embed. en.    :        0.000000000000 Eh       

---------------
SCF CONVERGENCE
---------------

  Last Energy change         ...    1.8659e-08  Tolerance :   1.0000e-08
  Last MAX-Density change    ...    3.4154e-07  Tolerance :   1.0000e-07
  Last RMS-Density change    ...    4.8977e-09  Tolerance :   5.0000e-09
  Last DIIS Error            ...    8.2225e-07  Tolerance :   5.0000e-07

             **** THE GBW FILE WAS UPDATED (TEP_Ni.gbw) ****
             **** DENSITY FILE WAS UPDATED (TEP_Ni.scfp) ****
             **** ENERGY FILE WAS UPDATED (TEP_Ni.en.tmp) ****
             **** THE GBW FILE WAS UPDATED (TEP_Ni.gbw) ****
             **** DENSITY FILE WAS UPDATED (TEP_Ni.scfp) ****
----------------
ORBITAL ENERGIES
----------------

  NO   OCC          E(Eh)            E(eV) 
   0   2.0000    -300.141909     -8167.2766 
   1   2.0000     -77.228257     -2101.4877 
   2   2.0000     -35.889210      -976.5951 
   3   2.0000     -31.278200      -851.1231 
   4   2.0000     -31.277453      -851.1028 
   5   2.0000     -31.273822      -851.0040 
   6   2.0000     -19.281137      -524.6664 
   7   2.0000     -19.280879      -524.6594 
   8   2.0000     -19.280634      -524.6527 
   9   2.0000     -10.336832      -281.2795 
  10   2.0000     -10.336529      -281.2713 
  11   2.0000     -10.335782      -281.2509 
  12   2.0000     -10.266875      -279.3759 
  13   2.0000     -10.266064      -279.3538 
  14   2.0000     -10.254325      -279.0344 
  15   2.0000     -10.237371      -278.5730 
  16   2.0000     -10.236523      -278.5500 
  17   2.0000     -10.235276      -278.5160 
  18   2.0000     -10.234869      -278.5049 
  19   2.0000     -10.231224      -278.4058 
  20   2.0000     -10.228260      -278.3251 
  21   2.0000     -10.227328      -278.2997 
  22   2.0000     -10.227071      -278.2928 
  23   2.0000     -10.225706      -278.2556 
  24   2.0000     -10.223940      -278.2076 
  25   2.0000     -10.222596      -278.1710 
  26   2.0000      -6.631406      -180.4497 
  27   2.0000      -4.771477      -129.8385 
  28   2.0000      -4.771348      -129.8350 
  29   2.0000      -4.769221      -129.7771 
  30   2.0000      -4.055054      -110.3436 
  31   2.0000      -2.631593       -71.6093 
  32   2.0000      -2.630187       -71.5710 
  33   2.0000      -2.619212       -71.2724 
  34   2.0000      -1.145382       -31.1674 
  35   2.0000      -1.144579       -31.1456 
  36   2.0000      -1.144402       -31.1408 
  37   2.0000      -0.869453       -23.6590 
  38   2.0000      -0.849207       -23.1081 
  39   2.0000      -0.836727       -22.7685 
  40   2.0000      -0.771191       -20.9852 
  41   2.0000      -0.763570       -20.7778 
  42   2.0000      -0.718363       -19.5477 
  43   2.0000      -0.713083       -19.4040 
  44   2.0000      -0.711312       -19.3558 
  45   2.0000      -0.699522       -19.0350 
  46   2.0000      -0.671120       -18.2621 
  47   2.0000      -0.624595       -16.9961 
  48   2.0000      -0.614279       -16.7154 
  49   2.0000      -0.580180       -15.7875 
  50   2.0000      -0.571425       -15.5493 
  51   2.0000      -0.569234       -15.4896 
  52   2.0000      -0.562663       -15.3108 
  53   2.0000      -0.562346       -15.3022 
  54   2.0000      -0.533167       -14.5082 
  55   2.0000      -0.509255       -13.8575 
  56   2.0000      -0.492074       -13.3900 
  57   2.0000      -0.485330       -13.2065 
  58   2.0000      -0.481042       -13.0898 
  59   2.0000      -0.476389       -12.9632 
  60   2.0000      -0.472965       -12.8700 
  61   2.0000      -0.470171       -12.7940 
  62   2.0000      -0.468294       -12.7429 
  63   2.0000      -0.464738       -12.6462 
  64   2.0000      -0.462494       -12.5851 
  65   2.0000      -0.461306       -12.5528 
  66   2.0000      -0.459618       -12.5068 
  67   2.0000      -0.456584       -12.4243 
  68   2.0000      -0.453141       -12.3306 
  69   2.0000      -0.451539       -12.2870 
  70   2.0000      -0.447909       -12.1882 
  71   2.0000      -0.443466       -12.0673 
  72   2.0000      -0.438338       -11.9278 
  73   2.0000      -0.426493       -11.6055 
  74   2.0000      -0.420788       -11.4502 
  75   2.0000      -0.411128       -11.1874 
  76   2.0000      -0.409082       -11.1317 
  77   2.0000      -0.398924       -10.8553 
  78   2.0000      -0.396206       -10.7813 
  79   2.0000      -0.395803       -10.7703 
  80   2.0000      -0.392723       -10.6865 
  81   2.0000      -0.387120       -10.5341 
  82   2.0000      -0.378565       -10.3013 
  83   2.0000      -0.363034        -9.8787 
  84   2.0000      -0.361090        -9.8258 
  85   2.0000      -0.355489        -9.6734 
  86   2.0000      -0.349882        -9.5208 
  87   2.0000      -0.345455        -9.4003 
  88   2.0000      -0.341776        -9.3002 
  89   2.0000      -0.319457        -8.6929 
  90   2.0000      -0.317346        -8.6354 
  91   2.0000      -0.315913        -8.5964 
  92   2.0000      -0.304582        -8.2881 
  93   2.0000      -0.299707        -8.1554 
  94   2.0000      -0.284088        -7.7304 
  95   2.0000      -0.283006        -7.7010 
  96   2.0000      -0.238943        -6.5020 
  97   2.0000      -0.236299        -6.4300 
  98   2.0000      -0.225972        -6.1490 
  99   0.0000      -0.026500        -0.7211 
 100   0.0000      -0.006993        -0.1903 
 101   0.0000      -0.002643        -0.0719 
 102   0.0000       0.015286         0.4159 
 103   0.0000       0.018577         0.5055 
 104   0.0000       0.020546         0.5591 
 105   0.0000       0.047112         1.2820 
 106   0.0000       0.052876         1.4388 
 107   0.0000       0.058307         1.5866 
 108   0.0000       0.068456         1.8628 
 109   0.0000       0.079504         2.1634 
 110   0.0000       0.081240         2.2107 
 111   0.0000       0.081915         2.2290 
 112   0.0000       0.097673         2.6578 
 113   0.0000       0.105694         2.8761 
 114   0.0000       0.109600         2.9824 
 115   0.0000       0.111133         3.0241 
 116   0.0000       0.113921         3.1000 
 117   0.0000       0.118938         3.2365 
 118   0.0000       0.129825         3.5327 
 119   0.0000       0.134487         3.6596 
 120   0.0000       0.136437         3.7126 
 121   0.0000       0.139390         3.7930 
 122   0.0000       0.143753         3.9117 
 123   0.0000       0.146390         3.9835 
 124   0.0000       0.150377         4.0920 
 125   0.0000       0.157414         4.2834 
 126   0.0000       0.164915         4.4876 
 127   0.0000       0.167051         4.5457 
 128   0.0000       0.168652         4.5892 
 129   0.0000       0.173794         4.7292 
 130   0.0000       0.179369         4.8809 
 131   0.0000       0.181145         4.9292 
 132   0.0000       0.189795         5.1646 
 133   0.0000       0.194639         5.2964 
 134   0.0000       0.201408         5.4806 
 135   0.0000       0.206423         5.6171 
 136   0.0000       0.210254         5.7213 
 137   0.0000       0.217938         5.9304 
 138   0.0000       0.220668         6.0047 
 139   0.0000       0.224253         6.1022 
 140   0.0000       0.232558         6.3282 
 141   0.0000       0.234294         6.3755 
 142   0.0000       0.241192         6.5632 
 143   0.0000       0.248689         6.7672 
 144   0.0000       0.253481         6.8976 
 145   0.0000       0.262853         7.1526 
 146   0.0000       0.267719         7.2850 
 147   0.0000       0.272834         7.4242 
 148   0.0000       0.273898         7.4531 
 149   0.0000       0.291401         7.9294 
 150   0.0000       0.310136         8.4392 
 151   0.0000       0.314689         8.5631 
 152   0.0000       0.317239         8.6325 
 153   0.0000       0.323083         8.7915 
 154   0.0000       0.341659         9.2970 
 155   0.0000       0.358726         9.7614 
 156   0.0000       0.379955        10.3391 
 157   0.0000       0.383519        10.4361 
 158   0.0000       0.399063        10.8591 
 159   0.0000       0.406214        11.0536 
 160   0.0000       0.423332        11.5194 
 161   0.0000       0.425925        11.5900 
 162   0.0000       0.429995        11.7008 
 163   0.0000       0.440255        11.9799 
 164   0.0000       0.450487        12.2584 
 165   0.0000       0.459193        12.4953 
 166   0.0000       0.466714        12.6999 
 167   0.0000       0.471835        12.8393 
 168   0.0000       0.474867        12.9218 
 169   0.0000       0.487148        13.2560 
 170   0.0000       0.492913        13.4128 
 171   0.0000       0.513140        13.9632 
 172   0.0000       0.520892        14.1742 
 173   0.0000       0.521348        14.1866 
 174   0.0000       0.531225        14.4554 
 175   0.0000       0.537590        14.6286 
 176   0.0000       0.543314        14.7843 
 177   0.0000       0.546782        14.8787 
 178   0.0000       0.559318        15.2198 
 179   0.0000       0.562244        15.2994 
 180   0.0000       0.574038        15.6204 
 181   0.0000       0.578638        15.7455 
 182   0.0000       0.586039        15.9469 
 183   0.0000       0.590276        16.0622 
 184   0.0000       0.612815        16.6755 
 185   0.0000       0.617628        16.8065 
 186   0.0000       0.620020        16.8716 
 187   0.0000       0.624505        16.9936 
 188   0.0000       0.631984        17.1972 
 189   0.0000       0.639011        17.3884 
 190   0.0000       0.643448        17.5091 
 191   0.0000       0.648886        17.6571 
 192   0.0000       0.653858        17.7924 
 193   0.0000       0.658088        17.9075 
 194   0.0000       0.659255        17.9393 
 195   0.0000       0.662794        18.0356 
 196   0.0000       0.666852        18.1460 
 197   0.0000       0.668796        18.1989 
 198   0.0000       0.674820        18.3628 
 199   0.0000       0.676906        18.4196 
 200   0.0000       0.679676        18.4949 
 201   0.0000       0.690519        18.7900 
 202   0.0000       0.693659        18.8754 
 203   0.0000       0.694237        18.8911 
 204   0.0000       0.696312        18.9476 
 205   0.0000       0.699328        19.0297 
 206   0.0000       0.705785        19.2054 
 207   0.0000       0.709220        19.2988 
 208   0.0000       0.711497        19.3608 
 209   0.0000       0.716278        19.4909 
 210   0.0000       0.722050        19.6480 
 211   0.0000       0.722771        19.6676 
 212   0.0000       0.726071        19.7574 
 213   0.0000       0.732484        19.9319 
 214   0.0000       0.736317        20.0362 
 215   0.0000       0.737884        20.0789 
 216   0.0000       0.741222        20.1697 
 217   0.0000       0.748307        20.3625 
 218   0.0000       0.750855        20.4318 
 219   0.0000       0.753514        20.5042 
 220   0.0000       0.755130        20.5481 
 221   0.0000       0.757414        20.6103 
 222   0.0000       0.759852        20.6766 
 223   0.0000       0.760971        20.7071 
 224   0.0000       0.764130        20.7930 
 225   0.0000       0.769617        20.9423 
 226   0.0000       0.771223        20.9860 
 227   0.0000       0.776960        21.1422 
 228   0.0000       0.781450        21.2643 
 229   0.0000       0.784717        21.3532 
 230   0.0000       0.793075        21.5807 
 231   0.0000       0.797405        21.6985 
 232   0.0000       0.807588        21.9756 
 233   0.0000       0.812792        22.1172 
 234   0.0000       0.818208        22.2646 
 235   0.0000       0.825670        22.4676 
 236   0.0000       0.829310        22.5667 
 237   0.0000       0.837884        22.8000 
 238   0.0000       0.845967        23.0199 
 239   0.0000       0.858068        23.3492 
 240   0.0000       0.861525        23.4433 
 241   0.0000       0.869568        23.6621 
 242   0.0000       0.871023        23.7017 
 243   0.0000       0.883761        24.0484 
 244   0.0000       0.895668        24.3724 
 245   0.0000       0.898845        24.4588 
 246   0.0000       0.912961        24.8429 
 247   0.0000       0.931904        25.3584 
 248   0.0000       0.948997        25.8235 
 249   0.0000       0.962430        26.1891 
 250   0.0000       0.981262        26.7015 
 251   0.0000       0.997787        27.1512 
 252   0.0000       1.004152        27.3244 
 253   0.0000       1.021333        27.7919 
 254   0.0000       1.030543        28.0425 
 255   0.0000       1.042526        28.3686 
 256   0.0000       1.055337        28.7172 
 257   0.0000       1.062770        28.9194 
 258   0.0000       1.070541        29.1309 
 259   0.0000       1.083253        29.4768 
 260   0.0000       1.097196        29.8562 
 261   0.0000       1.102447        29.9991 
 262   0.0000       1.109886        30.2015 
 263   0.0000       1.112401        30.2700 
 264   0.0000       1.120775        30.4978 
 265   0.0000       1.131033        30.7770 
 266   0.0000       1.134912        30.8825 
 267   0.0000       1.137015        30.9398 
 268   0.0000       1.150999        31.3203 
 269   0.0000       1.159334        31.5471 
 270   0.0000       1.169116        31.8133 
 271   0.0000       1.177159        32.0321 
 272   0.0000       1.185513        32.2595 
 273   0.0000       1.188374        32.3373 
 274   0.0000       1.205157        32.7940 
 275   0.0000       1.218352        33.1531 
 276   0.0000       1.227063        33.3901 
 277   0.0000       1.241480        33.7824 
 278   0.0000       1.265168        34.4270 
 279   0.0000       1.266651        34.4673 
 280   0.0000       1.292022        35.1577 
 281   0.0000       1.304023        35.4843 
 282   0.0000       1.316065        35.8120 
 283   0.0000       1.324144        36.0318 
 284   0.0000       1.344143        36.5760 
 285   0.0000       1.356983        36.9254 
 286   0.0000       1.358761        36.9738 
 287   0.0000       1.391615        37.8678 
 288   0.0000       1.402391        38.1610 
 289   0.0000       1.404512        38.2187 
 290   0.0000       1.449111        39.4323 
 291   0.0000       1.476700        40.1830 
 292   0.0000       1.490723        40.5646 
 293   0.0000       1.498676        40.7810 
 294   0.0000       1.503891        40.9229 
 295   0.0000       1.512638        41.1610 
 296   0.0000       1.522018        41.4162 
 297   0.0000       1.533035        41.7160 
 298   0.0000       1.535036        41.7705 
 299   0.0000       1.547024        42.0967 
 300   0.0000       1.560259        42.4568 
 301   0.0000       1.564258        42.5656 
 302   0.0000       1.571279        42.7567 
 303   0.0000       1.589841        43.2618 
 304   0.0000       1.591960        43.3194 
 305   0.0000       1.596120        43.4326 
 306   0.0000       1.604737        43.6671 
 307   0.0000       1.610253        43.8172 
 308   0.0000       1.612434        43.8766 
 309   0.0000       1.621656        44.1275 
 310   0.0000       1.634745        44.4837 
 311   0.0000       1.637772        44.5660 
 312   0.0000       1.649754        44.8921 
 313   0.0000       1.658541        45.1312 
 314   0.0000       1.658814        45.1386 
 315   0.0000       1.677253        45.6404 
 316   0.0000       1.682515        45.7836 
 317   0.0000       1.685469        45.8640 
 318   0.0000       1.686738        45.8985 
 319   0.0000       1.704679        46.3867 
 320   0.0000       1.718526        46.7635 
 321   0.0000       1.739054        47.3221 
 322   0.0000       1.745233        47.4902 
 323   0.0000       1.751880        47.6711 
 324   0.0000       1.760881        47.9160 
 325   0.0000       1.770793        48.1857 
 326   0.0000       1.772898        48.2430 
 327   0.0000       1.779496        48.4225 
 328   0.0000       1.789547        48.6961 
 329   0.0000       1.792097        48.7654 
 330   0.0000       1.799572        48.9689 
 331   0.0000       1.803202        49.0676 
[...]
  57:       787.05    0.164381  ( -0.285313   0.006442  -0.287986)
  58:       834.17    9.365508  ( -0.038697   3.036780   0.376802)
  59:       836.57    5.681290  ( -1.806089  -1.411124  -0.654265)
  60:       839.53    7.616510  (  2.595763  -0.736723  -0.579452)
  61:       865.82    4.847013  ( -1.278440   1.520677   0.948760)
  62:       898.37    1.178634  (  1.081405  -0.084627   0.045114)
  63:       909.69    4.110880  (  0.991038  -1.698998   0.492069)
  64:       935.35    0.274888  (  0.422268   0.074901   0.301608)
  65:       942.35    0.988957  (  0.675352  -0.729294  -0.031406)
  66:       946.07    0.946217  ( -0.225436   0.601309   0.730632)
  67:       948.14    1.537707  (  0.242583   0.117820  -1.210363)
  68:       954.05    0.307707  ( -0.439686  -0.308021  -0.139666)
  69:       955.79    0.580016  ( -0.292589  -0.611532  -0.347039)
  70:       957.55    2.940358  ( -0.960774   1.209029  -0.745332)
  71:      1015.37    0.757485  (  0.851753  -0.165124   0.068825)
  72:      1026.01    2.067442  (  0.009982  -0.386720   1.384843)
  73:      1026.50    0.896920  (  0.460791   0.035446  -0.826641)
  74:      1030.56    3.545513  ( -0.528447   1.520829   0.976389)
  75:      1032.92   15.427359  (  0.495408   0.793375  -3.814772)
  76:      1062.29    0.615480  ( -0.215360   0.654160   0.375732)
  77:      1070.16    1.086346  (  0.820013   0.360105  -0.533151)
  78:      1110.43    3.423569  ( -0.683060   1.003908   1.396126)
  79:      1120.05    1.003299  ( -0.830325   0.539669   0.150392)
  80:      1139.04    1.888642  ( -1.222613   0.463730   0.422863)
  81:      1164.79    2.294347  (  1.074766   0.268270   1.033081)
  82:      1189.14   23.441043  ( -4.541250  -1.650570   0.306123)
  83:      1194.06   15.912879  ( -0.746188   3.423406   1.906928)
  84:      1214.09    0.320375  (  0.393901   0.379912  -0.144513)
  85:      1228.99    0.644890  ( -0.323879   0.544181   0.493821)
  86:      1234.60    3.238759  (  0.344575  -0.687973  -1.626874)
  87:      1236.90    0.064619  (  0.167635   0.042758  -0.186250)
  88:      1238.93    4.186909  (  0.702193  -0.385329  -1.882912)
  89:      1287.43    0.484211  (  0.481272  -0.305958   0.398721)
  90:      1295.94    4.570678  (  0.749632  -0.078987   2.000623)
  91:      1304.16    3.541363  ( -0.366364   0.605359  -1.743755)
  92:      1318.24    5.552439  (  2.034263   0.943283  -0.724176)
  93:      1338.21    0.785182  ( -0.384560  -0.508936  -0.615044)
  94:      1369.16    1.660050  (  0.989130   0.699004  -0.439392)
  95:      1373.97    1.905541  (  0.252571  -0.731722   1.142949)
  96:      1375.62    6.724233  (  0.642893  -0.851069   2.363600)
  97:      1376.41    6.427182  ( -1.388487  -0.195255   2.112146)
  98:      1379.58    3.147579  (  0.078379   1.767818  -0.127502)
  99:      1382.83    4.372656  (  0.189407   1.174773  -1.719503)
 100:      1390.64    0.347015  (  0.523370  -0.265179   0.052709)
 101:      1394.52    0.415057  (  0.183118   0.438608  -0.434911)
 102:      1399.41   19.597198  ( -3.482458  -2.733004  -0.019254)
 103:      1408.21   16.216705  ( -2.275447   3.308263  -0.307316)
 104:      1438.90    2.495039  (  1.393913   0.523126   0.527623)
 105:      1444.22    1.049312  ( -0.432931  -0.587543  -0.718802)
 106:      1448.72    0.545206  (  0.302014  -0.411276  -0.533709)
 107:      1451.49    0.356695  (  0.592914   0.018997   0.069185)
 108:      1455.38    3.415545  ( -0.230091   1.234689  -1.355783)
 109:      1456.88    6.550058  (  1.092152   1.923544   1.287338)
 110:      1457.58    1.992848  (  0.036229   1.333295  -0.462450)
 111:      1459.26    6.334665  ( -1.923856  -1.191005   1.102248)
 112:      1461.91    5.412816  (  1.537706  -0.773030  -1.565471)
 113:      1468.75    2.108418  ( -1.364730  -0.409922   0.279095)
 114:      1469.92    4.884671  (  0.514576   0.285300   2.130372)
 115:      1475.64    6.770909  ( -0.100837   1.936746  -1.734865)
 116:      1475.70    2.576780  (  1.066462  -1.194459   0.112729)
 117:      1481.67   17.212033  ( -3.715392  -1.030067  -1.531945)
 118:      1486.07    5.169524  (  0.548143   1.640020   1.476279)
 119:      1496.81   16.714194  (  3.090561   1.051587  -2.461055)
 120:      1499.93    6.827296  ( -0.146578   2.548557  -0.557377)
 121:      2117.62  955.216472  ( 23.378308 -16.878710  11.125661)
 122:      2123.37  841.881066  (-17.768158 -22.769021   2.783038)
 123:      2182.35  381.162407  (  3.568667  -6.543592 -18.044623)
 124:      3035.37   15.831721  ( -0.598125   0.300886  -3.922172)
 125:      3039.99   22.650397  (  2.763522  -3.305307   2.021952)
 126:      3042.11   56.752238  (  0.684431   4.615465  -5.914497)
 127:      3050.06    6.994486  (  0.965239   0.127131  -2.458991)
 128:      3052.86   30.107238  ( -0.740859  -3.788415  -3.899523)
 129:      3053.33   14.065356  ( -1.933793  -2.011680   2.505782)
 130:      3056.88   45.375580  (  6.591010  -1.015078  -0.950677)
 131:      3064.47   13.723262  (  3.549840   0.515179   0.925468)
 132:      3065.99   13.956581  (  3.249598   1.842742   0.031523)
 133:      3068.20   44.322644  ( -1.964776  -6.360699   0.061685)
 134:      3076.30   14.768601  ( -0.765979  -3.468110  -1.467683)
 135:      3108.43   30.808959  ( -4.230999   3.254399   1.522003)
 136:      3116.32    2.891681  ( -0.885667   0.850654   1.176292)
 137:      3120.13   27.189363  ( -2.094100   0.535350  -4.745262)
 138:      3134.54   15.771965  (  3.533459  -0.515694   1.738014)
 139:      3135.87   17.479807  (  1.661926   3.166698  -2.165603)
 140:      3139.48   20.039458  (  2.209634   3.737893  -1.088639)
 141:      3141.68    8.124181  ( -1.654846  -2.265908   0.501325)
 142:      3144.06   37.948919  (  5.985513  -0.546568   1.350487)
 143:      3148.28   20.578226  (  0.776636   4.350845   1.022354)
 144:      3152.91    7.720026  (  1.409769  -0.753314  -2.272684)
 145:      3156.07    1.969948  ( -0.984771  -0.619170  -0.785368)
 146:      3158.31   11.140133  (  0.633272   2.068921   2.541391)
 147:      3167.50    9.051178  ( -2.299357  -1.124223  -1.581220)
 148:      3170.96   11.015628  (  1.435982  -2.892137   0.767545)
 149:      3181.45    9.741743  (  0.253465   2.027863   2.359083)
 150:      3186.10    7.039833  ( -0.233181   2.167580  -1.512302)
 151:      3219.24    9.101130  (  2.121554  -1.926562  -0.942603)
 152:      3233.45    2.583613  ( -1.036026   0.840281  -0.896766)

The first frequency considered to be a vibration is 6
The total number of vibrations considered is 147


--------------------------
THERMOCHEMISTRY AT 298.15K
--------------------------

Temperature         ... 298.15 K
Pressure            ... 1.00 atm
Total Mass          ... 371.09 AMU

Throughout the following assumptions are being made:
  (1) The electronic state is orbitally nondegenerate
  (2) There are no thermally accessible electronically excited states
  (3) Hindered rotations indicated by low frequency modes are not
      treated as such but are treated as vibrations and this may
      cause some error
  (4) All equations used are the standard statistical mechanics
      equations for an ideal gas
  (5) All vibrations are strictly harmonic

freq.      27.15  E(vib)   ...       0.55 
freq.      39.94  E(vib)   ...       0.54 
freq.      60.76  E(vib)   ...       0.51 
freq.      66.43  E(vib)   ...       0.50 
freq.      68.80  E(vib)   ...       0.50 
freq.      78.35  E(vib)   ...       0.49 
freq.      79.64  E(vib)   ...       0.49 
freq.      85.50  E(vib)   ...       0.48 
freq.      93.66  E(vib)   ...       0.47 
freq.     102.36  E(vib)   ...       0.46 
freq.     120.77  E(vib)   ...       0.44 
freq.     147.58  E(vib)   ...       0.41 
freq.     151.71  E(vib)   ...       0.40 
freq.     157.49  E(vib)   ...       0.40 
freq.     179.44  E(vib)   ...       0.37 
freq.     195.16  E(vib)   ...       0.36 
freq.     222.21  E(vib)   ...       0.33 
freq.     233.13  E(vib)   ...       0.32 
freq.     234.67  E(vib)   ...       0.32 
freq.     246.56  E(vib)   ...       0.31 
freq.     264.89  E(vib)   ...       0.29 
freq.     270.30  E(vib)   ...       0.29 
freq.     283.64  E(vib)   ...       0.28 
freq.     291.62  E(vib)   ...       0.27 
freq.     299.83  E(vib)   ...       0.26 
freq.     305.10  E(vib)   ...       0.26 
freq.     317.83  E(vib)   ...       0.25 
freq.     330.83  E(vib)   ...       0.24 
freq.     344.98  E(vib)   ...       0.23 
freq.     363.64  E(vib)   ...       0.22 
freq.     367.91  E(vib)   ...       0.21 
freq.     376.31  E(vib)   ...       0.21 
freq.     379.72  E(vib)   ...       0.21 
freq.     394.73  E(vib)   ...       0.20 
freq.     410.41  E(vib)   ...       0.19 
freq.     423.82  E(vib)   ...       0.18 
freq.     433.27  E(vib)   ...       0.17 
freq.     435.31  E(vib)   ...       0.17 
freq.     449.84  E(vib)   ...       0.17 
freq.     468.47  E(vib)   ...       0.16 
freq.     472.36  E(vib)   ...       0.15 
freq.     476.09  E(vib)   ...       0.15 
freq.     487.31  E(vib)   ...       0.15 
freq.     496.58  E(vib)   ...       0.14 
freq.     509.06  E(vib)   ...       0.14 
freq.     514.08  E(vib)   ...       0.13 
freq.     517.43  E(vib)   ...       0.13 
freq.     566.63  E(vib)   ...       0.11 
freq.     586.84  E(vib)   ...       0.11 
freq.     607.05  E(vib)   ...       0.10 
freq.     682.33  E(vib)   ...       0.08 
freq.     787.05  E(vib)   ...       0.05 
freq.     834.17  E(vib)   ...       0.04 
freq.     836.57  E(vib)   ...       0.04 
freq.     839.53  E(vib)   ...       0.04 
freq.     865.82  E(vib)   ...       0.04 
freq.     898.37  E(vib)   ...       0.03 
freq.     909.69  E(vib)   ...       0.03 
freq.     935.35  E(vib)   ...       0.03 
freq.     942.35  E(vib)   ...       0.03 
freq.     946.07  E(vib)   ...       0.03 
freq.     948.14  E(vib)   ...       0.03 
freq.     954.05  E(vib)   ...       0.03 
freq.     955.79  E(vib)   ...       0.03 
freq.     957.55  E(vib)   ...       0.03 
freq.    1015.37  E(vib)   ...       0.02 
freq.    1026.01  E(vib)   ...       0.02 
freq.    1026.50  E(vib)   ...       0.02 
freq.    1030.56  E(vib)   ...       0.02 
freq.    1032.92  E(vib)   ...       0.02 
freq.    1062.29  E(vib)   ...       0.02 
freq.    1070.16  E(vib)   ...       0.02 
freq.    1110.43  E(vib)   ...       0.02 
freq.    1120.05  E(vib)   ...       0.01 
freq.    1139.04  E(vib)   ...       0.01 
freq.    1164.79  E(vib)   ...       0.01 
freq.    1189.14  E(vib)   ...       0.01 
freq.    1194.06  E(vib)   ...       0.01 
freq.    1214.09  E(vib)   ...       0.01 
freq.    1228.99  E(vib)   ...       0.01 
freq.    1234.60  E(vib)   ...       0.01 
freq.    1236.90  E(vib)   ...       0.01 
freq.    1238.93  E(vib)   ...       0.01 
freq.    1287.43  E(vib)   ...       0.01 
freq.    1295.94  E(vib)   ...       0.01 
freq.    1304.16  E(vib)   ...       0.01 
freq.    1318.24  E(vib)   ...       0.01 
freq.    1338.21  E(vib)   ...       0.01 
freq.    1369.16  E(vib)   ...       0.01 
freq.    1373.97  E(vib)   ...       0.01 
freq.    1375.62  E(vib)   ...       0.01 
freq.    1376.41  E(vib)   ...       0.01 
freq.    1379.58  E(vib)   ...       0.01 
freq.    1382.83  E(vib)   ...       0.01 
freq.    1390.64  E(vib)   ...       0.00 
freq.    1394.52  E(vib)   ...       0.00 
freq.    1399.41  E(vib)   ...       0.00 
freq.    1408.21  E(vib)   ...       0.00 
freq.    1438.90  E(vib)   ...       0.00 
freq.    1444.22  E(vib)   ...       0.00 
freq.    1448.72  E(vib)   ...       0.00 
freq.    1451.49  E(vib)   ...       0.00 
freq.    1455.38  E(vib)   ...       0.00 
freq.    1456.88  E(vib)   ...       0.00 
freq.    1457.58  E(vib)   ...       0.00 
freq.    1459.26  E(vib)   ...       0.00 
freq.    1461.91  E(vib)   ...       0.00 
freq.    1468.75  E(vib)   ...       0.00 
freq.    1469.92  E(vib)   ...       0.00 
freq.    1475.64  E(vib)   ...       0.00 
freq.    1475.70  E(vib)   ...       0.00 
freq.    1481.67  E(vib)   ...       0.00 
freq.    1486.07  E(vib)   ...       0.00 
freq.    1496.81  E(vib)   ...       0.00 
freq.    1499.93  E(vib)   ...       0.00 
freq.    2117.62  E(vib)   ...       0.00 
freq.    2123.37  E(vib)   ...       0.00 
freq.    2182.35  E(vib)   ...       0.00 
freq.    3035.37  E(vib)   ...       0.00 
freq.    3039.99  E(vib)   ...       0.00 
freq.    3042.11  E(vib)   ...       0.00 
freq.    3050.06  E(vib)   ...       0.00 
freq.    3052.86  E(vib)   ...       0.00 
freq.    3053.33  E(vib)   ...       0.00 
freq.    3056.88  E(vib)   ...       0.00 
freq.    3064.47  E(vib)   ...       0.00 
freq.    3065.99  E(vib)   ...       0.00 
freq.    3068.20  E(vib)   ...       0.00 
freq.    3076.30  E(vib)   ...       0.00 
freq.    3108.43  E(vib)   ...       0.00 
freq.    3116.32  E(vib)   ...       0.00 
freq.    3120.13  E(vib)   ...       0.00 
freq.    3134.54  E(vib)   ...       0.00 
freq.    3135.87  E(vib)   ...       0.00 
freq.    3139.48  E(vib)   ...       0.00 
freq.    3141.68  E(vib)   ...       0.00 
freq.    3144.06  E(vib)   ...       0.00 
freq.    3148.28  E(vib)   ...       0.00 
freq.    3152.91  E(vib)   ...       0.00 
freq.    3156.07  E(vib)   ...       0.00 
freq.    3158.31  E(vib)   ...       0.00 
freq.    3167.50  E(vib)   ...       0.00 
freq.    3170.96  E(vib)   ...       0.00 
freq.    3181.45  E(vib)   ...       0.00 
freq.    3186.10  E(vib)   ...       0.00 
freq.    3219.24  E(vib)   ...       0.00 
freq.    3233.45  E(vib)   ...       0.00 

------------
INNER ENERGY
------------

The inner energy is: U= E(el) + E(ZPE) + E(vib) + E(rot) + E(trans)
    E(el)   - is the total energy from the electronic structure calculation
              = E(kin-el) + E(nuc-el) + E(el-el) + E(nuc-nuc)
    E(ZPE)  - the the zero temperature vibrational energy from the frequency calculation
    E(vib)  - the the finite temperature correction to E(ZPE) due to population
              of excited vibrational states
    E(rot)  - is the rotational thermal energy
    E(trans)- is the translational thermal energy

Summary of contributions to the inner energy U:
Electronic energy                ...  -2738.62751650 Eh
Zero point energy                ...      0.43474644 Eh     272.81 kcal/mol
Thermal vibrational correction   ...      0.02448645 Eh      15.37 kcal/mol
Thermal rotational correction    ...      0.00141627 Eh       0.89 kcal/mol
Thermal translational correction ...      0.00141627 Eh       0.89 kcal/mol
-----------------------------------------------------------------------
Total thermal energy                  -2738.16545106 Eh


Summary of corrections to the electronic energy:
(perhaps to be used in another calculation)
Total thermal correction                  0.02731899 Eh      17.14 kcal/mol
Non-thermal (ZPE) correction              0.43474644 Eh     272.81 kcal/mol
-----------------------------------------------------------------------
Total correction                          0.46206543 Eh     289.95 kcal/mol


--------
ENTHALPY
--------

The enthalpy is H = U + kB*T
                kB is Boltzmann's constant
Total free energy                 ...  -2738.16545106 Eh 
Thermal Enthalpy correction       ...      0.00094421 Eh       0.59 kcal/mol
-----------------------------------------------------------------------
Total Enthalpy                    ...  -2738.16450685 Eh


Note: Only C1 symmetry has been detected, increase convergence thresholds 
      if your molecule has a higher symmetry. Symmetry factor of 1.0 is   
      used for the rotational entropy correction. 
 

Note: Rotational entropy computed according to Herzberg 
Infrared and Raman Spectra, Chapter V,1, Van Nostrand Reinhold, 1945 
Point Group:  C1, Symmetry Number:   1  
Rotational constants in cm-1:     0.008749     0.008285     0.007132 

Vibrational entropy computed according to the QRRHO of S. Grimme
Chem.Eur.J. 2012 18 9955


-------
ENTROPY
-------

The entropy contributions are T*S = T*(S(el)+S(vib)+S(rot)+S(trans))
     S(el)   - electronic entropy
     S(vib)  - vibrational entropy
     S(rot)  - rotational entropy
     S(trans)- translational entropy
The entropies will be listed as mutliplied by the temperature to get
units of energy

Electronic entropy                ...      0.00000000 Eh      0.00 kcal/mol
Vibrational entropy               ...      0.04296314 Eh     26.96 kcal/mol
Rotational entropy                ...      0.01634448 Eh     10.26 kcal/mol
Translational entropy             ...      0.02072836 Eh     13.01 kcal/mol
-----------------------------------------------------------------------
Final entropy term                ...      0.08003598 Eh     50.22 kcal/mol

In case the symmetry of your molecule has not been determined correctly
or in case you have a reason to use a different symmetry number we print 
out the resulting rotational entropy values for sn=1,12 :
 --------------------------------------------------------
|  sn= 1 | S(rot)=       0.01634448 Eh     10.26 kcal/mol|
|  sn= 2 | S(rot)=       0.01569002 Eh      9.85 kcal/mol|
|  sn= 3 | S(rot)=       0.01530719 Eh      9.61 kcal/mol|
|  sn= 4 | S(rot)=       0.01503557 Eh      9.43 kcal/mol|
|  sn= 5 | S(rot)=       0.01482488 Eh      9.30 kcal/mol|
|  sn= 6 | S(rot)=       0.01465274 Eh      9.19 kcal/mol|
|  sn= 7 | S(rot)=       0.01450719 Eh      9.10 kcal/mol|
|  sn= 8 | S(rot)=       0.01438111 Eh      9.02 kcal/mol|
|  sn= 9 | S(rot)=       0.01426990 Eh      8.95 kcal/mol|
|  sn=10 | S(rot)=       0.01417042 Eh      8.89 kcal/mol|
|  sn=11 | S(rot)=       0.01408043 Eh      8.84 kcal/mol|
|  sn=12 | S(rot)=       0.01399828 Eh      8.78 kcal/mol|
 --------------------------------------------------------


-------------------
GIBBS FREE ENERGY
-------------------

The Gibbs free energy is G = H - T*S

Total enthalpy                    ...  -2738.16450685 Eh 
Total entropy correction          ...     -0.08003598 Eh    -50.22 kcal/mol
-----------------------------------------------------------------------
Final Gibbs free energy         ...  -2738.24454283 Eh

For completeness - the Gibbs free energy minus the electronic energy
G-E(el)                           ...      0.38297366 Eh    240.32 kcal/mol

--------------------------------------------------------------------------
WARNING: No preset parameters were found for the device that Open MPI
detected:

  Local host:            eu-g9-019-2
  Device name:           mlx5_0
  Device vendor ID:      0x02c9
  Device vendor part ID: 4123

Default device parameters will be used, which may result in lower
performance.  You can edit any of the files specified by the
btl_openib_device_param_files MCA parameter to set values for your
device.

NOTE: You can turn off this warning by setting the MCA parameter
      btl_openib_warn_no_device_params_found to 0.
--------------------------------------------------------------------------
--------------------------------------------------------------------------
WARNING: There is at least non-excluded one OpenFabrics device found,
but there are no active ports detected (or Open MPI was unable to use
them).  This is most certainly not what you wanted.  Check your
cables, subnet manager configuration, etc.  The openib BTL will be
ignored for this job.

  Local host: eu-g9-019-2
--------------------------------------------------------------------------

Timings for individual modules:

Sum of individual times         ...    11456.214 sec (= 190.937 min)
GTO integral calculation        ...      145.064 sec (=   2.418 min)   1.3 %
SCF iterations                  ...     3488.697 sec (=  58.145 min)  30.5 %
SCF Gradient evaluation         ...      635.843 sec (=  10.597 min)   5.6 %
Geometry relaxation             ...        6.610 sec (=   0.110 min)   0.1 %
Analytical frequency calculation...     7179.999 sec (= 119.667 min)  62.7 %
                             ****ORCA TERMINATED NORMALLY****
TOTAL RUN TIME: 0 days 3 hours 11 minutes 9 seconds 296 msec
