
                                 *****************
                                 * O   R   C   A *
                                 *****************

           --- An Ab Initio, DFT and Semiempirical electronic structure package ---

                  #######################################################
                  #                        -***-                        #
                  #          Department of theory and spectroscopy      #
                  #               Directorship: Frank Neese             #
                  #        Max Planck Institute fuer Kohlenforschung    #
                  #                Kaiser Wilhelm Platz 1               #
                  #                 D-45470 Muelheim/Ruhr               #
                  #                      Germany                        #
                  #                                                     #
                  #                  All rights reserved                #
                  #                        -***-                        #
                  #######################################################


                         Program Version 4.2.0 -  RELEASE  -


 With contributions from (in alphabetic order):
   Daniel Aravena         : Magnetic Suceptibility
   Michael Atanasov       : Ab Initio Ligand Field Theory (pilot matlab implementation)
   Alexander A. Auer      : GIAO ZORA, VPT2
   Ute Becker             : Parallelization
   Giovanni Bistoni       : ED, misc. LED, open-shell LED, HFLED
   Martin Brehm           : Molecular dynamics
   Dmytro Bykov           : SCF Hessian
   Vijay G. Chilkuri      : MRCI spin determinant printing, contributions to CSF-ICE
   Dipayan Datta          : RHF DLPNO-CCSD density
   Achintya Kumar Dutta   : EOM-CC, STEOM-CC
   Dmitry Ganyushin       : Spin-Orbit,Spin-Spin,Magnetic field MRCI
   Miquel Garcia          : C-PCM Hessian, Gaussian charge scheme
   Yang Guo               : DLPNO-NEVPT2, CIM, IAO-localization
   Andreas Hansen         : Spin unrestricted coupled pair/coupled cluster methods
   Benjamin Helmich-Paris : CASSCF linear response (MC-RPA)
   Lee Huntington         : MR-EOM, pCC
   Robert Izsak           : Overlap fitted RIJCOSX, COSX-SCS-MP3, EOM
   Christian Kollmar      : KDIIS, OOCD, Brueckner-CCSD(T), CCSD density
   Simone Kossmann        : Meta GGA functionals, TD-DFT gradient, OOMP2, MP2 Hessian
   Martin Krupicka        : AUTO-CI
   Lucas Lang             : DCDCAS
   Dagmar Lenk            : GEPOL surface, SMD
   Dimitrios Liakos       : Extrapolation schemes; Compound Job, initial MDCI parallelization
   Dimitrios Manganas     : Further ROCIS development; embedding schemes
   Dimitrios Pantazis     : SARC Basis sets
   Taras Petrenko         : DFT Hessian,TD-DFT gradient, ASA, ECA, R-Raman, ABS, FL, XAS/XES, NRVS
   Peter Pinski           : DLPNO-MP2, DLPNO-MP2 Gradient
   Christoph Reimann      : Effective Core Potentials
   Marius Retegan         : Local ZFS, SOC
   Christoph Riplinger    : Optimizer, TS searches, QM/MM, DLPNO-CCSD(T), (RO)-DLPNO pert. Triples
   Tobias Risthaus        : Range-separated hybrids, TD-DFT gradient, RPA, STAB
   Michael Roemelt        : Original ROCIS implementation
   Masaaki Saitow         : Open-shell DLPNO-CCSD energy and density
   Barbara Sandhoefer     : DKH picture change effects
   Avijit Sen             : IP-ROCIS
   Kantharuban Sivalingam : CASSCF convergence, NEVPT2, FIC-MRCI
   Bernardo de Souza      : ESD, SOC TD-DFT
   Georgi Stoychev        : AutoAux, RI-MP2 NMR
   Willem Van den Heuvel  : Paramagnetic NMR
   Boris Wezisla          : Elementary symmetry handling
   Frank Wennmohs         : Technical directorship


 We gratefully acknowledge several colleagues who have allowed us to
 interface, adapt or use parts of their codes:
   Stefan Grimme, W. Hujo, H. Kruse,             : VdW corrections, initial TS optimization,
                  C. Bannwarth                     DFT functionals, gCP, sTDA/sTD-DF
   Ed Valeev, F. Pavosevic, A. Kumar             : LibInt (2-el integral package), F12 methods
   Garnet Chan, S. Sharma, J. Yang, R. Olivares  : DMRG
   Ulf Ekstrom                                   : XCFun DFT Library
   Mihaly Kallay                                 : mrcc  (arbitrary order and MRCC methods)
   Andreas Klamt, Michael Diedenhofen            : otool_cosmo (COSMO solvation model)
   Jiri Pittner, Ondrej Demel                    : Mk-CCSD
   Frank Weinhold                                : gennbo (NPA and NBO analysis)
   Christopher J. Cramer and Donald G. Truhlar   : smd solvation model
   Lars Goerigk                                  : TD-DFT with DH, B97 family of functionals
   V. Asgeirsson, H. Jonsson                     : NEB implementation
   FAccTs GmbH                                   : IRC, NEB, NEB-TS, Multilevel, MM, QM/MM, CI optimization
   S Lehtola, MJT Oliveira, MAL Marques          : LibXC Library


 Your calculation uses the libint2 library for the computation of 2-el integrals
 For citations please refer to: http://libint.valeyev.net

 Your ORCA version has been built with support for libXC version: 4.2.3
 For citations please refer to: https://tddft.org/programs/libxc/

 This ORCA versions uses:
   CBLAS   interface :  Fast vector & matrix operations
   LAPACKE interface :  Fast linear algebra routines
   SCALAPACK package :  Parallel linear algebra routines




***************************************
The coordinates will be read from file: xtbopt.xyz
***************************************


Your calculation utilizes the atom-pairwise dispersion correction
with the Becke-Johnson damping scheme (D3BJ)
Cite in your paper:
S.Grimme, S.Ehrlich, L.Goerigk, J Comput Chem, (2011), 32, 1456–1465 
S.Grimme, J.Antony, S.Ehrlich and H.Krieg, J.Chem.Phys., 132, (2010), 154104 
   

----- Orbital basis set information -----
Your calculation utilizes the basis: def2-SVP
   F. Weigend and R. Ahlrichs, Phys. Chem. Chem. Phys. 7, 3297 (2005).

----- AuxJ basis set information -----
Your calculation utilizes the auxiliary basis: def2/J
   F. Weigend, Phys. Chem. Chem. Phys. 8, 1057 (2006).

================================================================================
                                        WARNINGS
                       Please study these warnings very carefully!
================================================================================


WARNING: Split-RI-J cannot be used together with RIJONX
  ===> : Split-RI-J will be disabled

WARNING: Geometry Optimization
  ===> : Switching off AutoStart
         For restart on a previous wavefunction, please use MOREAD

INFO   : the flag for use of LIBINT has been found!

================================================================================
                                       INPUT FILE
================================================================================
NAME = TEP_Ni.inp
|  1> ! PBE0 def2-SVP RIJDX D3BJ opt freq
|  2> %pal nprocs 10 end
|  3> %maxcore 3036
|  4> 
|  5> %basis
|  6>   newgto Ni "def2-TZVP" end
|  7> end
|  8> 
|  9> *xyzfile 0 1 xtbopt.xyz
| 10> 
| 11>                          ****END OF INPUT****
================================================================================

                       *****************************
                       * Geometry Optimization Run *
                       *****************************

Geometry optimization settings:
Update method            Update   .... BFGS
Choice of coordinates    CoordSys .... Z-matrix Internals
Initial Hessian          InHess   .... Almoef's Model

Convergence Tolerances:
Energy Change            TolE     ....  5.0000e-06 Eh
Max. Gradient            TolMAXG  ....  3.0000e-04 Eh/bohr
RMS Gradient             TolRMSG  ....  1.0000e-04 Eh/bohr
Max. Displacement        TolMAXD  ....  4.0000e-03 bohr
RMS Displacement         TolRMSD  ....  2.0000e-03 bohr
Strict Convergence                ....  False
------------------------------------------------------------------------------
                        ORCA OPTIMIZATION COORDINATE SETUP
------------------------------------------------------------------------------

The optimization will be done in new redundant internal coordinates
Making redundant internal coordinates   ...  (new redundants) done
Evaluating the initial hessian          ...  (Almloef) done
Evaluating the coordinates              ...  done
Calculating the B-matrix                .... done
Calculating the G-matrix                .... done
Diagonalizing the G-matrix              .... done
Small eigenvalue found = 1.200e-02
Small eigenvalue found = 1.200e-02
Small eigenvalue found = 2.631e-02
Small eigenvalue found = 2.631e-02
Small eigenvalue found = 2.711e-02
The first mode is                       ....  124
The number of degrees of freedom        ....  135

    -----------------------------------------------------------------
                    Redundant Internal Coordinates


    -----------------------------------------------------------------
         Definition                    Initial Value    Approx d2E/dq
    -----------------------------------------------------------------
      1. B(C   1,O   0)                  1.1415         1.394168   
      2. B(Ni  2,C   1)                  1.7997         1.403374   
      3. B(C   3,Ni  2)                  1.7996         1.404093   
      4. B(O   4,C   3)                  1.1416         1.393826   
      5. B(P   5,Ni  2)                  2.4142         0.493494   
      6. B(C   6,P   5)                  1.9232         0.296165   
      7. B(C   7,C   6)                  1.5319         0.371034   
      8. B(C   8,C   6)                  1.5281         0.376187   
      9. B(C   9,C   6)                  1.5343         0.367739   
     10. B(C  10,P   5)                  1.9232         0.296168   
     11. B(C  11,C  10)                  1.5319         0.371043   
     12. B(C  12,C  10)                  1.5281         0.376195   
     13. B(C  13,C  10)                  1.5343         0.367729   
     14. B(C  14,P   5)                  1.9231         0.296250   
     15. B(C  15,C  14)                  1.5319         0.371034   
     16. B(C  16,C  14)                  1.5281         0.376177   
     17. B(C  17,C  14)                  1.5343         0.367768   
     18. B(C  18,Ni  2)                  1.7997         1.403449   
     19. B(O  19,C  18)                  1.1416         1.393987   
     20. B(H  20,C   7)                  1.0852         0.366453   
     21. B(H  21,C   7)                  1.0883         0.362334   
     22. B(H  22,C   7)                  1.0897         0.360440   
     23. B(H  23,C   8)                  1.0850         0.366822   
     24. B(H  24,C   8)                  1.0904         0.359627   
     25. B(H  25,C   8)                  1.0856         0.365921   
     26. B(H  26,C   9)                  1.0912         0.358500   
     27. B(H  27,C   9)                  1.0834         0.368974   
     28. B(H  28,C   9)                  1.0894         0.360864   
     29. B(H  29,C  11)                  1.0852         0.366453   
     30. B(H  30,C  11)                  1.0883         0.362345   
     31. B(H  31,C  11)                  1.0897         0.360441   
     32. B(H  32,C  12)                  1.0850         0.366834   
     33. B(H  33,C  12)                  1.0903         0.359647   
     34. B(H  34,C  12)                  1.0856         0.365934   
     35. B(H  35,C  13)                  1.0912         0.358510   
     36. B(H  36,C  13)                  1.0834         0.368997   
     37. B(H  37,C  13)                  1.0894         0.360876   
     38. B(H  38,C  15)                  1.0852         0.366440   
     39. B(H  39,C  15)                  1.0883         0.362326   
     40. B(H  40,C  15)                  1.0897         0.360452   
     41. B(H  41,C  16)                  1.0850         0.366841   
     42. B(H  42,C  16)                  1.0903         0.359647   
     43. B(H  43,C  16)                  1.0856         0.365920   
     44. B(H  44,C  17)                  1.0912         0.358513   
     45. B(H  45,C  17)                  1.0834         0.368978   
     46. B(H  46,C  17)                  1.0894         0.360851   
     47. A(O   0,C   1,Ni  2)          172.6871         0.660245   
     48. A(C   3,Ni  2,C  18)          111.5078         0.755296   
     49. A(C   1,Ni  2,C  18)          111.4673         0.755219   
     50. A(C   1,Ni  2,P   5)          107.4345         0.647086   
     51. A(P   5,Ni  2,C  18)          107.3982         0.647092   
     52. A(C   1,Ni  2,C   3)          111.3866         0.755288   
     53. A(C   3,Ni  2,P   5)          107.3892         0.647150   
     54. A(Ni  2,C   3,O   4)          172.7599         0.660279   
     55. A(C  10,P   5,C  14)          107.9168         0.379748   
     56. A(C   6,P   5,C  14)          107.9059         0.379747   
     57. A(C   6,P   5,C  10)          107.9056         0.379729   
     58. A(Ni  2,P   5,C  10)          111.0009         0.457672   
     59. A(Ni  2,P   5,C  14)          110.9780         0.457695   
     60. A(Ni  2,P   5,C   6)          110.9946         0.457671   
     61. A(C   7,C   6,C   9)          105.6985         0.361954   
     62. A(C   8,C   6,C   9)          109.1520         0.362807   
     63. A(C   7,C   6,C   8)          108.5744         0.363360   
     64. A(P   5,C   6,C   9)          107.9566         0.370416   
     65. A(P   5,C   6,C   7)          108.4288         0.370985   
     66. A(P   5,C   6,C   8)          116.5025         0.371867   
     67. A(C   6,C   7,H  21)          110.5377         0.324285   
     68. A(C   6,C   7,H  20)          112.2964         0.324887   
     69. A(H  21,C   7,H  22)          107.6910         0.291165   
     70. A(H  20,C   7,H  22)          107.2570         0.291683   
     71. A(C   6,C   7,H  22)          109.3524         0.324006   
     72. A(H  20,C   7,H  21)          109.5474         0.291924   
     73. A(H  23,C   8,H  25)          108.9051         0.292423   
     74. A(H  23,C   8,H  24)          107.7534         0.291626   
     75. A(C   6,C   8,H  24)          108.4142         0.324620   
     76. A(C   6,C   8,H  23)          112.2277         0.325679   
     77. A(C   6,C   8,H  25)          112.0638         0.325547   
     78. A(H  24,C   8,H  25)          107.2647         0.291513   
     79. A(H  27,C   9,H  28)          107.4763         0.292052   
     80. A(H  26,C   9,H  28)          107.8722         0.290733   
     81. A(C   6,C   9,H  28)          109.4307         0.323594   
     82. A(H  26,C   9,H  27)          108.6077         0.291750   
     83. A(C   6,C   9,H  27)          113.0146         0.324777   
     84. A(C   6,C   9,H  26)          110.2759         0.323245   
     85. A(C  12,C  10,C  13)          109.1595         0.362807   
     86. A(C  11,C  10,C  13)          105.6973         0.361953   
     87. A(P   5,C  10,C  13)          107.9519         0.370415   
     88. A(C  11,C  10,C  12)          108.5669         0.363363   
     89. A(P   5,C  10,C  11)          108.4414         0.370987   
     90. A(P   5,C  10,C  12)          116.4962         0.371869   
     91. A(C  10,C  11,H  31)          109.3461         0.324007   
     92. A(H  30,C  11,H  31)          107.6886         0.291167   
     93. A(H  29,C  11,H  31)          107.2571         0.291683   
     94. A(H  29,C  11,H  30)          109.5498         0.291925   
     95. A(C  10,C  11,H  30)          110.5385         0.324288   
     96. A(C  10,C  11,H  29)          112.3014         0.324889   
     97. A(H  32,C  12,H  34)          108.9072         0.292426   
     98. A(C  10,C  12,H  34)          112.0689         0.325550   
     99. A(H  32,C  12,H  33)          107.7519         0.291630   
    100. A(C  10,C  12,H  33)          108.4158         0.324624   
    101. A(C  10,C  12,H  32)          112.2225         0.325682   
    102. A(H  33,C  12,H  34)          107.2625         0.291517   
    103. A(H  36,C  13,H  37)          107.4770         0.292056   
    104. A(H  35,C  13,H  37)          107.8709         0.290736   
    105. A(C  10,C  13,H  37)          109.4335         0.323595   
    106. A(H  35,C  13,H  36)          108.6042         0.291754   
    107. A(C  10,C  13,H  36)          113.0200         0.324779   
    108. A(C  10,C  13,H  35)          110.2716         0.323245   
    109. A(C  16,C  14,C  17)          109.1594         0.362810   
    110. A(C  15,C  14,C  17)          105.6937         0.361958   
    111. A(P   5,C  14,C  17)          107.9553         0.370440   
    112. A(C  15,C  14,C  16)          108.5770         0.363359   
    113. A(P   5,C  14,C  16)          116.4948         0.371884   
    114. A(P   5,C  14,C  15)          108.4325         0.371004   
    115. A(H  38,C  15,H  40)          107.2609         0.291683   
    116. A(C  14,C  15,H  40)          109.3487         0.324008   
    117. A(H  38,C  15,H  39)          109.5493         0.291921   
    118. A(C  14,C  15,H  39)          110.5369         0.324284   
    119. A(C  14,C  15,H  38)          112.2976         0.324886   
    120. A(H  39,C  15,H  40)          107.6885         0.291166   
    121. A(H  42,C  16,H  43)          107.2637         0.291516   
    122. A(H  41,C  16,H  43)          108.9051         0.292425   
    123. A(C  14,C  16,H  43)          112.0640         0.325546   
    124. A(H  41,C  16,H  42)          107.7524         0.291631   
    125. A(C  14,C  16,H  42)          108.4175         0.324622   
    126. A(C  14,C  16,H  41)          112.2261         0.325680   
    127. A(H  44,C  17,H  46)          107.8763         0.290733   
    128. A(C  14,C  17,H  46)          109.4250         0.323596   
    129. A(H  44,C  17,H  45)          108.6023         0.291752   
    130. A(C  14,C  17,H  45)          113.0242         0.324782   
    131. A(C  14,C  17,H  44)          110.2684         0.323252   
    132. A(H  45,C  17,H  46)          107.4812         0.292051   
    133. A(Ni  2,C  18,O  19)          172.7735         0.660235   
    134. D(C  18,Ni  2,C   1,O   0)    -55.2709         0.009049   
    135. D(C   3,Ni  2,C   1,O   0)     69.9759         0.009049   
    136. D(P   5,Ni  2,C   1,O   0)   -172.6755         0.009049   
    137. D(O   4,C   3,Ni  2,C  18)     70.7370         0.009057   
    138. D(O   4,C   3,Ni  2,C   1)    -54.4872         0.009057   
    139. D(O   4,C   3,Ni  2,P   5)   -171.8633         0.009057   
    140. D(C   6,P   5,Ni  2,C   3)   -164.0205         0.001837   
    141. D(C  10,P   5,Ni  2,C  18)     76.0322         0.001837   
    142. D(C   6,P   5,Ni  2,C   1)     76.0540         0.001837   
    143. D(C  10,P   5,Ni  2,C   3)    -44.0166         0.001837   
    144. D(C   6,P   5,Ni  2,C  18)    -43.9717         0.001837   
    145. D(C  14,P   5,Ni  2,C   1)    -43.9350         0.001837   
    146. D(C  14,P   5,Ni  2,C  18)   -163.9607         0.001837   
    147. D(C  14,P   5,Ni  2,C   3)     75.9905         0.001837   
    148. D(C  10,P   5,Ni  2,C   1)   -163.9421         0.001837   
    149. D(C   9,C   6,P   5,Ni  2)    -41.3595         0.002764   
    150. D(C   9,C   6,P   5,C  14)     80.4421         0.002764   
    151. D(C   9,C   6,P   5,C  10)   -163.1892         0.002764   
    152. D(C   7,C   6,P   5,C  14)   -165.4916         0.002764   
    153. D(C   8,C   6,P   5,Ni  2)   -164.5189         0.002764   
    154. D(C   8,C   6,P   5,C  14)    -42.7173         0.002764   
    155. D(C   8,C   6,P   5,C  10)     73.6514         0.002764   
    156. D(C   7,C   6,P   5,C  10)    -49.1229         0.002764   
    157. D(C   7,C   6,P   5,Ni  2)     72.7068         0.002764   
    158. D(H  22,C   7,C   6,P   5)   -165.2514         0.011001   
    159. D(H  21,C   7,C   6,P   5)    -46.8580         0.011001   
    160. D(H  20,C   7,C   6,C   9)   -168.6446         0.011001   
    161. D(H  21,C   7,C   6,C   9)     68.6861         0.011001   
    162. D(H  20,C   7,C   6,C   8)    -51.6465         0.011001   
    163. D(H  20,C   7,C   6,P   5)     75.8113         0.011001   
    164. D(H  21,C   7,C   6,C   8)   -174.3158         0.011001   
    165. D(H  22,C   7,C   6,C   9)    -49.7073         0.011001   
    166. D(H  22,C   7,C   6,C   8)     67.2908         0.011001   
    167. D(H  25,C   8,C   6,C   9)    -55.0082         0.011291   
    168. D(H  25,C   8,C   6,C   7)   -169.7717         0.011291   
    169. D(H  25,C   8,C   6,P   5)     67.5298         0.011291   
    170. D(H  24,C   8,C   6,C   9)     63.1862         0.011291   
    171. D(H  24,C   8,C   6,C   7)    -51.5773         0.011291   
    172. D(H  24,C   8,C   6,P   5)   -174.2758         0.011291   
    173. D(H  23,C   8,C   6,C   9)   -177.9173         0.011291   
    174. D(H  23,C   8,C   6,C   7)     67.3192         0.011291   
    175. D(H  23,C   8,C   6,P   5)    -55.3793         0.011291   
    176. D(H  28,C   9,C   6,C   8)    -66.5513         0.010819   
    177. D(H  28,C   9,C   6,C   7)     50.0562         0.010819   
    178. D(H  28,C   9,C   6,P   5)    165.9226         0.010819   
    179. D(H  27,C   9,C   6,C   8)     53.1733         0.010819   
    180. D(H  27,C   9,C   6,C   7)    169.7807         0.010819   
    181. D(H  27,C   9,C   6,P   5)    -74.3529         0.010819   
    182. D(H  26,C   9,C   6,C   8)    174.9430         0.010819   
    183. D(H  26,C   9,C   6,C   7)    -68.4495         0.010819   
    184. D(H  26,C   9,C   6,P   5)     47.4169         0.010819   
    185. D(C  13,C  10,P   5,C  14)   -163.1853         0.002764   
    186. D(C  13,C  10,P   5,Ni  2)    -41.3726         0.002764   
    187. D(C  12,C  10,P   5,C  14)     73.6537         0.002764   
    188. D(C  12,C  10,P   5,C   6)    -42.7079         0.002764   
    189. D(C  12,C  10,P   5,Ni  2)   -164.5336         0.002764   
    190. D(C  11,C  10,P   5,C  14)    -49.1164         0.002764   
    191. D(C  13,C  10,P   5,C   6)     80.4532         0.002764   
    192. D(C  11,C  10,P   5,C   6)   -165.4780         0.002764   
    193. D(C  11,C  10,P   5,Ni  2)     72.6963         0.002764   
    194. D(H  29,C  11,C  10,C  13)   -168.7177         0.011002   
    195. D(H  29,C  11,C  10,C  12)    -51.7153         0.011002   
    196. D(H  29,C  11,C  10,P   5)     75.7382         0.011002   
    197. D(H  31,C  11,C  10,C  13)    -49.7813         0.011002   
    198. D(H  31,C  11,C  10,C  12)     67.2212         0.011002   
    199. D(H  31,C  11,C  10,P   5)   -165.3254         0.011002   
    200. D(H  30,C  11,C  10,C  13)     68.6057         0.011002   
    201. D(H  30,C  11,C  10,C  12)   -174.3918         0.011002   
    202. D(H  30,C  11,C  10,P   5)    -46.9383         0.011002   
    203. D(H  34,C  12,C  10,C  13)    -55.0196         0.011292   
    204. D(H  34,C  12,C  10,C  11)   -169.7816         0.011292   
    205. D(H  34,C  12,C  10,P   5)     67.5136         0.011292   
    206. D(H  33,C  12,C  10,C  13)     63.1762         0.011292   
    207. D(H  33,C  12,C  10,C  11)    -51.5858         0.011292   
    208. D(H  33,C  12,C  10,P   5)   -174.2906         0.011292   
    209. D(H  32,C  12,C  10,C  13)   -177.9312         0.011292   
    210. D(H  32,C  12,C  10,C  11)     67.3067         0.011292   
    211. D(H  32,C  12,C  10,P   5)    -55.3981         0.011292   
    212. D(H  37,C  13,C  10,C  11)     50.0515         0.010818   
    213. D(H  37,C  13,C  10,P   5)    165.9297         0.010818   
    214. D(H  36,C  13,C  10,C  12)     53.1805         0.010818   
    215. D(H  36,C  13,C  10,C  11)    169.7823         0.010818   
    216. D(H  36,C  13,C  10,P   5)    -74.3395         0.010818   
    217. D(H  35,C  13,C  10,C  12)    174.9464         0.010818   
    218. D(H  35,C  13,C  10,C  11)    -68.4519         0.010818   
    219. D(H  37,C  13,C  10,C  12)    -66.5503         0.010818   
    220. D(H  35,C  13,C  10,P   5)     47.4263         0.010818   
    221. D(C  17,C  14,P   5,C  10)     80.4678         0.002765   
    222. D(C  17,C  14,P   5,Ni  2)    -41.3591         0.002765   
    223. D(C  16,C  14,P   5,C  10)    -42.6949         0.002765   
    224. D(C  16,C  14,P   5,C   6)     73.6664         0.002765   
    225. D(C  16,C  14,P   5,Ni  2)   -164.5218         0.002765   
    226. D(C  15,C  14,P   5,C  10)   -165.4703         0.002765   
    227. D(C  17,C  14,P   5,C   6)   -163.1708         0.002765   
    228. D(C  15,C  14,P   5,C   6)    -49.1089         0.002765   
    229. D(C  15,C  14,P   5,Ni  2)     72.7029         0.002765   
    230. D(H  40,C  15,C  14,C  17)    -49.6520         0.011001   
    231. D(H  40,C  15,C  14,C  16)     67.3535         0.011001   
    232. D(H  40,C  15,C  14,P   5)   -165.1940         0.011001   
    233. D(H  39,C  15,C  14,C  17)     68.7355         0.011001   
    234. D(H  39,C  15,C  14,C  16)   -174.2590         0.011001   
    235. D(H  39,C  15,C  14,P   5)    -46.8065         0.011001   
    236. D(H  38,C  15,C  14,C  17)   -168.5925         0.011001   
    237. D(H  38,C  15,C  14,C  16)    -51.5870         0.011001   
    238. D(H  38,C  15,C  14,P   5)     75.8655         0.011001   
    239. D(H  43,C  16,C  14,C  17)    -54.9329         0.011291   
    240. D(H  43,C  16,C  14,C  15)   -169.6961         0.011291   
    241. D(H  43,C  16,C  14,P   5)     67.6038         0.011291   
    242. D(H  42,C  16,C  14,C  17)     63.2626         0.011291   
    243. D(H  42,C  16,C  14,C  15)    -51.5007         0.011291   
    244. D(H  42,C  16,C  14,P   5)   -174.2008         0.011291   
    245. D(H  41,C  16,C  14,C  17)   -177.8409         0.011291   
    246. D(H  41,C  16,C  14,C  15)     67.3959         0.011291   
    247. D(H  41,C  16,C  14,P   5)    -55.3042         0.011291   
    248. D(H  46,C  17,C  14,C  15)     50.2786         0.010820   
    249. D(H  46,C  17,C  14,P   5)    166.1464         0.010820   
    250. D(H  45,C  17,C  14,C  16)     53.4000         0.010820   
    251. D(H  45,C  17,C  14,C  15)    170.0116         0.010820   
    252. D(H  45,C  17,C  14,P   5)    -74.1206         0.010820   
    253. D(H  44,C  17,C  14,C  16)    175.1642         0.010820   
    254. D(H  44,C  17,C  14,C  15)    -68.2242         0.010820   
    255. D(H  46,C  17,C  14,C  16)    -66.3330         0.010820   
    256. D(H  44,C  17,C  14,P   5)     47.6436         0.010820   
    257. D(O  19,C  18,Ni  2,P   5)   -172.5481         0.009050   
    258. D(O  19,C  18,Ni  2,C   3)    -55.1539         0.009050   
    259. D(O  19,C  18,Ni  2,C   1)     70.0255         0.009050   
    -----------------------------------------------------------------

Number of atoms                         .... 47
Number of degrees of freedom            .... 259

         *************************************************************
         *                GEOMETRY OPTIMIZATION CYCLE   1            *
         *************************************************************
---------------------------------
CARTESIAN COORDINATES (ANGSTROEM)
---------------------------------
  O      1.221801   -0.090187   -0.388147
  C      2.331525   -0.139985   -0.125296
  Ni     4.076531   -0.431843    0.204529
  C      5.028729   -0.508819   -1.320561
  O      5.539972   -0.659645   -2.330063
  P      4.897566    1.450723    1.473505
  C      4.321618    1.350518    3.305709
  C      5.114414    0.240327    4.002516
  C      4.447780    2.630311    4.131125
  C      2.859301    0.886266    3.317154
  C      6.819952    1.505233    1.460125
  C      7.282523    1.946977    0.068199
  C      7.483722    2.404979    2.501733
  C      7.334941    0.070292    1.632714
  C      4.253594    3.108216    0.741082
  C      2.764011    3.238516    1.073877
  C      4.967763    4.379110    1.199242
  C      4.330220    3.011004   -0.788181
  C      4.319521   -1.905131    1.209187
  O      4.432549   -2.914359    1.730553
  H      6.131774    0.541697    4.230330
  H      5.129569   -0.659645    3.390753
  H      4.632027   -0.009495    4.947202
  H      5.458976    3.023523    4.126734
  H      4.184613    2.401244    5.164155
  H      3.767799    3.404603    3.789509
  H      2.731068    0.024260    2.660460
  H      2.166629    1.660693    3.010289
  H      2.583604    0.581815    4.326185
  H      7.146795    3.011675   -0.092236
  H      6.753325    1.391950   -0.704012
  H      8.345964    1.736338   -0.042534
  H      7.126815    3.428108    2.447375
  H      8.557448    2.416951    2.312482
  H      7.338776    2.035054    3.512044
  H      6.806878   -0.604715    0.957258
  H      7.226955   -0.299666    2.645202
  H      8.394438    0.032819    1.381945
  H      2.596117    3.512497    2.110463
  H      2.240877    2.310012    0.853292
  H      2.323393    4.021401    0.457057
  H      4.975977    4.478480    2.279602
  H      4.436743    5.239134    0.790313
  H      5.988901    4.427380    0.833796
  H      3.900743    2.067537   -1.128976
  H      5.342191    3.087038   -1.167422
  H      3.752643    3.821060   -1.232115

----------------------------
CARTESIAN COORDINATES (A.U.)
----------------------------
  NO LB      ZA    FRAG     MASS         X           Y           Z
   0 O     8.0000    0    15.999    2.308868   -0.170428   -0.733492
   1 C     6.0000    0    12.011    4.405945   -0.264532   -0.236776
   2 Ni   28.0000    0    58.700    7.703527   -0.816065    0.386504
   3 C     6.0000    0    12.011    9.502920   -0.961529   -2.495499
   4 O     8.0000    0    15.999   10.469030   -1.246549   -4.403182
   5 P    15.0000    0    30.974    9.255058    2.741468    2.784520
   6 C     6.0000    0    12.011    8.166675    2.552108    6.246884
   7 C     6.0000    0    12.011    9.664842    0.454152    7.563659
   8 C     6.0000    0    12.011    8.405087    4.970568    7.806695
   9 C     6.0000    0    12.011    5.403296    1.674799    6.268512
  10 C     6.0000    0    12.011   12.887841    2.844478    2.759237
  11 C     6.0000    0    12.011   13.761974    3.679252    0.128878
  12 C     6.0000    0    12.011   14.142185    4.544751    4.727591
  13 C     6.0000    0    12.011   13.861030    0.132833    3.085383
  14 C     6.0000    0    12.011    8.038127    5.873676    1.400442
  15 C     6.0000    0    12.011    5.223223    6.119908    2.029333
  16 C     6.0000    0    12.011    9.387712    8.275319    2.266238
  17 C     6.0000    0    12.011    8.182930    5.689973   -1.489446
  18 C     6.0000    0    12.011    8.162711   -3.600175    2.285033
  19 O     8.0000    0    15.999    8.376304   -5.507341    3.270271
  20 H     1.0000    0     1.008   11.587374    1.023660    7.994166
  21 H     1.0000    0     1.008    9.693480   -1.246547    6.407595
  22 H     1.0000    0     1.008    8.753262   -0.017943    9.348856
  23 H     1.0000    0     1.008   10.315969    5.713631    7.798397
  24 H     1.0000    0     1.008    7.907773    4.537694    9.758838
  25 H     1.0000    0     1.008    7.120108    6.433767    7.161135
  26 H     1.0000    0     1.008    5.160971    0.045845    5.027540
  27 H     1.0000    0     1.008    4.094335    3.138254    5.688621
  28 H     1.0000    0     1.008    4.882304    1.099471    8.175305
  29 H     1.0000    0     1.008   13.505486    5.691241   -0.174302
  30 H     1.0000    0     1.008   12.761934    2.630405   -1.330390
  31 H     1.0000    0     1.008   15.771587    3.281203   -0.080378
  32 H     1.0000    0     1.008   13.467728    6.478185    4.624868
  33 H     1.0000    0     1.008   16.171233    4.567376    4.369957
  34 H     1.0000    0     1.008   13.868277    3.845694    6.636801
  35 H     1.0000    0     1.008   12.863135   -1.142746    1.808955
  36 H     1.0000    0     1.008   13.656966   -0.566287    4.998707
  37 H     1.0000    0     1.008   15.863189    0.062019    2.611498
  38 H     1.0000    0     1.008    4.905950    6.637658    3.988197
  39 H     1.0000    0     1.008    4.234644    4.365290    1.612489
  40 H     1.0000    0     1.008    4.390577    7.599347    0.863712
  41 H     1.0000    0     1.008    9.403235    8.463100    4.307823
  42 H     1.0000    0     1.008    8.384229    9.900528    1.493475
  43 H     1.0000    0     1.008   11.317384    8.366536    1.575646
  44 H     1.0000    0     1.008    7.371335    3.907078   -2.133455
  45 H     1.0000    0     1.008   10.095279    5.833657   -2.206107
  46 H     1.0000    0     1.008    7.091467    7.220757   -2.328360

--------------------------------
INTERNAL COORDINATES (ANGSTROEM)
--------------------------------
 O      0   0   0     0.000000000000     0.00000000     0.00000000
 C      1   0   0     1.141516479298     0.00000000     0.00000000
 Ni     2   1   0     1.799724818968   172.68713710     0.00000000
 C      3   2   1     1.799585492550   111.38660230    69.97588870
 O      4   3   2     1.141583266262   172.75994980   305.51278811
 P      3   2   1     2.414218599449   107.43451744   187.32453385
 C      6   3   2     1.923207788168   110.99455505    76.05400864
 C      7   6   3     1.531857719183   108.42876219    72.70679829
 C      7   6   3     1.528103499648   116.50246336   195.48108367
 C      7   6   3     1.534286105672   107.95663412   318.64048748
 C      6   3   2     1.923205009916   111.00094665   196.05789407
 C     11   6   3     1.531851092132   108.44142558    72.69627924
 C     11   6   3     1.528097311764   116.49621115   195.46638815
 C     11   6   3     1.534293424225   107.95193096   318.62740460
 C      6   3   2     1.923129330088   110.97804305   316.06497237
 C     15   6   3     1.531857788347   108.43251583    72.70291311
 C     15   6   3     1.528110215591   116.49479834   195.47822331
 C     15   6   3     1.534264287057   107.95532899   318.64094607
 C      3   2   1     1.799710442723   111.46732087   304.72905593
 O     19   3   2     1.141551720032   172.77345976    70.02545465
 H      8   7   6     1.085239548487   112.29636376    75.81130750
 H      8   7   6     1.088316110242   110.53770135   313.14197993
 H      8   7   6     1.089742968749   109.35241207   194.74860286
 H      9   7   6     1.084965821509   112.22773652   304.62070611
 H      9   7   6     1.090357562772   108.41418016   185.72417607
 H      9   7   6     1.085634906126   112.06379679    67.52978617
 H     10   7   6     1.091211972866   110.27585768    47.41688902
 H     10   7   6     1.083373328142   113.01460500   285.64714089
 H     10   7   6     1.089423279685   109.43066838   165.92259841
 H     12  11   6     1.085239479604   112.30138731    75.73823383
 H     12  11   6     1.088308248811   110.53852814   313.06169574
 H     12  11   6     1.089742041264   109.34607494   194.67463956
 H     13  11   6     1.084956531615   112.22246220   304.60192749
 H     13  11   6     1.090342372988   108.41578167   185.70936205
 H     13  11   6     1.085625002636   112.06885338    67.51359531
 H     14  11   6     1.091204697644   110.27163022    47.42632119
 H     14  11   6     1.083356479177   113.01995929   285.66045655
 H     14  11   6     1.089413895419   109.43345469   165.92966257
 H     16  15   6     1.085248778928   112.29760627    75.86553952
 H     16  15   6     1.088322438476   110.53694755   313.19349994
 H     16  15   6     1.089733720647   109.34867996   194.80601914
 H     17  15   6     1.084951255421   112.22614971   304.69575579
 H     17  15   6     1.090342431337   108.41752814   185.79924017
 H     17  15   6     1.085635343155   112.06402403    67.60380879
 H     18  15   6     1.091202397539   110.26842224    47.64356285
 H     18  15   6     1.083369899261   113.02424160   285.87939111
 H     18  15   6     1.089433072596   109.42499180   166.14635110

---------------------------
INTERNAL COORDINATES (A.U.)
---------------------------
 O      0   0   0     0.000000000000     0.00000000     0.00000000
 C      1   0   0     2.157153523232     0.00000000     0.00000000
 Ni     2   1   0     3.400987024271   172.68713710     0.00000000
 C      3   2   1     3.400723735497   111.38660230    69.97588870
 O      4   3   2     2.157279732302   172.75994980   305.51278811
 P      3   2   1     4.562211980377   107.43451744   187.32453385
 C      6   3   2     3.634336018262   110.99455505    76.05400864
 C      7   6   3     2.894791565390   108.42876219    72.70679829
 C      7   6   3     2.887697118621   116.50246336   195.48108367
 C      7   6   3     2.899380550800   107.95663412   318.64048748
 C      6   3   2     3.634330768126   111.00094665   196.05789407
 C     11   6   3     2.894779042078   108.44142558    72.69627924
 C     11   6   3     2.887685425215   116.49621115   195.46638815
 C     11   6   3     2.899394380861   107.95193096   318.62740460
 C      6   3   2     3.634187753978   110.97804305   316.06497237
 C     15   6   3     2.894791696089   108.43251583    72.70291311
 C     15   6   3     2.887709809913   116.49479834   195.47822331
 C     15   6   3     2.899339319593   107.95532899   318.64094607
 C      3   2   1     3.400959857105   111.46732087   304.72905593
 O     19   3   2     2.157220118567   172.77345976    70.02545465
 H      8   7   6     2.050805536342   112.29636376    75.81130750
 H      8   7   6     2.056619395492   110.53770135   313.14197993
 H      8   7   6     2.059315767303   109.35241207   194.74860286
 H      9   7   6     2.050288267317   112.22773652   304.62070611
 H      9   7   6     2.060477181688   108.41418016   185.72417607
 H      9   7   6     2.051552654004   112.06379679    67.52978617
 H     10   7   6     2.062091782773   110.27585768    47.41688902
 H     10   7   6     2.047278890982   113.01460500   285.64714089
 H     10   7   6     2.058711642523   109.43066838   165.92259841
 H     12  11   6     2.050805406172   112.30138731    75.73823383
 H     12  11   6     2.056604539540   110.53852814   313.06169574
 H     12  11   6     2.059314014609   109.34607494   194.67463956
 H     13  11   6     2.050270711961   112.22246220   304.60192749
 H     13  11   6     2.060448477157   108.41578167   185.70936205
 H     13  11   6     2.051533939119   112.06885338    67.51359531
 H     14  11   6     2.062078034595   110.27163022    47.42632119
 H     14  11   6     2.047247051054   113.01995929   285.66045655
 H     14  11   6     2.058693908830   109.43345469   165.92966257
 H     16  15   6     2.050822979346   112.29760627    75.86553952
 H     16  15   6     2.056631354122   110.53694755   313.19349994
 H     16  15   6     2.059298290921   109.34867996   194.80601914
 H     17  15   6     2.050260741399   112.22614971   304.69575579
 H     17  15   6     2.060448587421   108.41752814   185.79924017
 H     17  15   6     2.051553479869   112.06402403    67.60380879
 H     18  15   6     2.062073688027   110.26842224    47.64356285
 H     18  15   6     2.047272411336   113.02424160   285.87939111
 H     18  15   6     2.058730148444   109.42499180   166.14635110

---------------------
BASIS SET INFORMATION
---------------------
There are 5 groups of distinct atoms

 Group   1 Type O   : 7s4p1d contracted to 3s2p1d pattern {511/31/1}
 Group   2 Type C   : 7s4p1d contracted to 3s2p1d pattern {511/31/1}
 Group   3 Type Ni  : 17s11p7d1f contracted to 6s4p4d1f pattern {842111/6311/4111/1}
 Group   4 Type P   : 10s7p1d contracted to 4s3p1d pattern {5311/511/1}
 Group   5 Type H   : 4s1p contracted to 2s1p pattern {31/1}

Atom   0O    basis set group =>   1
Atom   1C    basis set group =>   2
Atom   2Ni   basis set group =>   3
Atom   3C    basis set group =>   2
Atom   4O    basis set group =>   1
Atom   5P    basis set group =>   4
Atom   6C    basis set group =>   2
Atom   7C    basis set group =>   2
Atom   8C    basis set group =>   2
Atom   9C    basis set group =>   2
Atom  10C    basis set group =>   2
Atom  11C    basis set group =>   2
Atom  12C    basis set group =>   2
Atom  13C    basis set group =>   2
Atom  14C    basis set group =>   2
Atom  15C    basis set group =>   2
Atom  16C    basis set group =>   2
Atom  17C    basis set group =>   2
Atom  18C    basis set group =>   2
Atom  19O    basis set group =>   1
Atom  20H    basis set group =>   5
Atom  21H    basis set group =>   5
Atom  22H    basis set group =>   5
Atom  23H    basis set group =>   5
Atom  24H    basis set group =>   5
Atom  25H    basis set group =>   5
Atom  26H    basis set group =>   5
Atom  27H    basis set group =>   5
Atom  28H    basis set group =>   5
Atom  29H    basis set group =>   5
Atom  30H    basis set group =>   5
Atom  31H    basis set group =>   5
Atom  32H    basis set group =>   5
Atom  33H    basis set group =>   5
Atom  34H    basis set group =>   5
Atom  35H    basis set group =>   5
Atom  36H    basis set group =>   5
Atom  37H    basis set group =>   5
Atom  38H    basis set group =>   5
Atom  39H    basis set group =>   5
Atom  40H    basis set group =>   5
Atom  41H    basis set group =>   5
Atom  42H    basis set group =>   5
Atom  43H    basis set group =>   5
Atom  44H    basis set group =>   5
Atom  45H    basis set group =>   5
Atom  46H    basis set group =>   5
---------------------------------
AUXILIARY/J BASIS SET INFORMATION
---------------------------------
There are 5 groups of distinct atoms

 Group   1 Type O   : 12s5p4d2f1g contracted to 6s4p3d1f1g pattern {711111/2111/211/2/1}
 Group   2 Type C   : 12s5p4d2f1g contracted to 6s4p3d1f1g pattern {711111/2111/211/2/1}
 Group   3 Type Ni  : 19s5p5d3f3g contracted to 8s5p5d2f3g pattern {121111111/11111/11111/21/111}
 Group   4 Type P   : 14s5p5d2f1g contracted to 8s4p3d1f1g pattern {71111111/2111/311/2/1}
 Group   5 Type H   : 5s2p1d contracted to 3s1p1d pattern {311/2/1}

Atom   0O    basis set group =>   1
Atom   1C    basis set group =>   2
Atom   2Ni   basis set group =>   3
Atom   3C    basis set group =>   2
Atom   4O    basis set group =>   1
Atom   5P    basis set group =>   4
Atom   6C    basis set group =>   2
Atom   7C    basis set group =>   2
Atom   8C    basis set group =>   2
Atom   9C    basis set group =>   2
Atom  10C    basis set group =>   2
Atom  11C    basis set group =>   2
Atom  12C    basis set group =>   2
Atom  13C    basis set group =>   2
Atom  14C    basis set group =>   2
Atom  15C    basis set group =>   2
Atom  16C    basis set group =>   2
Atom  17C    basis set group =>   2
Atom  18C    basis set group =>   2
Atom  19O    basis set group =>   1
Atom  20H    basis set group =>   5
Atom  21H    basis set group =>   5
Atom  22H    basis set group =>   5
Atom  23H    basis set group =>   5
Atom  24H    basis set group =>   5
Atom  25H    basis set group =>   5
Atom  26H    basis set group =>   5
Atom  27H    basis set group =>   5
Atom  28H    basis set group =>   5
Atom  29H    basis set group =>   5
Atom  30H    basis set group =>   5
Atom  31H    basis set group =>   5
Atom  32H    basis set group =>   5
Atom  33H    basis set group =>   5
Atom  34H    basis set group =>   5
Atom  35H    basis set group =>   5
Atom  36H    basis set group =>   5
Atom  37H    basis set group =>   5
Atom  38H    basis set group =>   5
Atom  39H    basis set group =>   5
Atom  40H    basis set group =>   5
Atom  41H    basis set group =>   5
Atom  42H    basis set group =>   5
Atom  43H    basis set group =>   5
Atom  44H    basis set group =>   5
Atom  45H    basis set group =>   5
Atom  46H    basis set group =>   5
--------------------------------------------------------------------------
WARNING: No preset parameters were found for the device that Open MPI
detected:

  Local host:            eu-g9-016-2
  Device name:           mlx5_0
  Device vendor ID:      0x02c9
  Device vendor part ID: 4123

Default device parameters will be used, which may result in lower
performance.  You can edit any of the files specified by the
btl_openib_device_param_files MCA parameter to set values for your
device.

NOTE: You can turn off this warning by setting the MCA parameter
      btl_openib_warn_no_device_params_found to 0.
--------------------------------------------------------------------------
--------------------------------------------------------------------------
WARNING: There is at least non-excluded one OpenFabrics device found,
but there are no active ports detected (or Open MPI was unable to use
them).  This is most certainly not what you wanted.  Check your
cables, subnet manager configuration, etc.  The openib BTL will be
ignored for this job.

  Local host: eu-g9-016-2
--------------------------------------------------------------------------


           ************************************************************
           *        Program running with 10 parallel MPI-processes    *
           *              working on a common directory               *
           ************************************************************
------------------------------------------------------------------------------
                           ORCA GTO INTEGRAL CALCULATION
                           -- RI-GTO INTEGRALS CHOSEN --
------------------------------------------------------------------------------

                         BASIS SET STATISTICS AND STARTUP INFO

Gaussian basis set:
 # of primitive gaussian shells          ...  405
 # of primitive gaussian functions       ...  749
 # of contracted shells                  ...  212
 # of contracted basis functions         ...  450
 Highest angular momentum                ...    3
 Maximum contraction depth               ...    8
Auxiliary gaussian basis set:
 # of primitive gaussian shells          ...  710
 # of primitive gaussian functions       ... 1876
 # of contracted shells                  ...  445
 # of contracted aux-basis functions     ... 1319
 Highest angular momentum                ...    4
 Maximum contraction depth               ...   12
Ratio of auxiliary to basis functions    ...  2.93
Integral package used                  ... LIBINT
 One Electron integrals                  ... done
 Ordering auxiliary basis shells         ... done
 Integral threshhold             Thresh  ...  2.500e-11
 Primitive cut-off               TCut    ...  2.500e-12
 Pre-screening matrix                    ... done
 Shell pair data                         ... 
 Ordering of the shell pairs             ... done (   0.003 sec) 18757 of 22578 pairs
 Determination of significant pairs      ... done (   0.000 sec)
 Creation of shell pair data             ... done (   0.001 sec)
 Storage of shell pair data              ... done (   0.004 sec)
 Shell pair data done in (   0.008 sec)
 Computing two index integrals           ... done
 Cholesky decomposition of the V-matrix  ... done


Timings:
 Total evaluation time                   ...   0.347 sec (  0.006 min)
 One electron matrix time                ...   0.091 sec (  0.002 min) = 26.1%
 Schwartz matrix evaluation time         ...   0.120 sec (  0.002 min) = 34.7%
 Two index repulsion integral time       ...   0.031 sec (  0.001 min) =  8.8%
 Cholesky decomposition of V             ...   0.076 sec (  0.001 min) = 21.8%
 Three index repulsion integral time     ...   0.000 sec (  0.000 min) =  0.0%

--------------------------------------------------------------------------
WARNING: No preset parameters were found for the device that Open MPI
detected:

  Local host:            eu-g9-016-2
  Device name:           mlx5_0
  Device vendor ID:      0x02c9
  Device vendor part ID: 4123

Default device parameters will be used, which may result in lower
performance.  You can edit any of the files specified by the
btl_openib_device_param_files MCA parameter to set values for your
device.

NOTE: You can turn off this warning by setting the MCA parameter
      btl_openib_warn_no_device_params_found to 0.
--------------------------------------------------------------------------
--------------------------------------------------------------------------
WARNING: There is at least non-excluded one OpenFabrics device found,
but there are no active ports detected (or Open MPI was unable to use
them).  This is most certainly not what you wanted.  Check your
cables, subnet manager configuration, etc.  The openib BTL will be
ignored for this job.

  Local host: eu-g9-016-2
--------------------------------------------------------------------------


           ************************************************************
           *        Program running with 10 parallel MPI-processes    *
           *              working on a common directory               *
           ************************************************************
-------------------------------------------------------------------------------
                                 ORCA SCF
-------------------------------------------------------------------------------

------------
SCF SETTINGS
------------
Hamiltonian:
 Density Functional     Method          .... DFT(GTOs)
 Exchange Functional    Exchange        .... PBE
   PBE kappa parameter   XKappa         ....  0.804000
   PBE mue parameter    XMuePBE         ....  0.219520
 Correlation Functional Correlation     .... PBE
   PBE beta parameter  CBetaPBE         ....  0.066725
 LDA part of GGA corr.  LDAOpt          .... PW91-LDA
 Gradients option       PostSCFGGA      .... off
 Hybrid DFT is turned on
   Fraction HF Exchange ScalHFX         ....  0.250000
   Scaling of DF-GGA-X  ScalDFX         ....  0.750000
   Scaling of DF-GGA-C  ScalDFC         ....  1.000000
   Scaling of DF-LDA-C  ScalLDAC        ....  1.000000
   Perturbative correction              ....  0.000000
   Density functional embedding theory  .... OFF
   NL short-range parameter             ....  6.900000
 RI-approximation to the Coulomb term is turned on
   Number of auxiliary basis functions  .... 1319
   RIJ-ON(X) (HFX calculated with O(N)) .... on


General Settings:
 Integral files         IntName         .... TEP_Ni
 Hartree-Fock type      HFTyp           .... RHF
 Total Charge           Charge          ....    0
 Multiplicity           Mult            ....    1
 Number of Electrons    NEL             ....  184
 Basis Dimension        Dim             ....  450
 Nuclear Repulsion      ENuc            ....   2474.1096297899 Eh

Convergence Acceleration:
 DIIS                   CNVDIIS         .... on
   Start iteration      DIISMaxIt       ....    12
   Startup error        DIISStart       ....  0.200000
   # of expansion vecs  DIISMaxEq       ....     5
   Bias factor          DIISBfac        ....   1.050
   Max. coefficient     DIISMaxC        ....  10.000
 Newton-Raphson         CNVNR           .... off
 SOSCF                  CNVSOSCF        .... off
 Level Shifting         CNVShift        .... on
   Level shift para.    LevelShift      ....    0.2500
   Turn off err/grad.   ShiftErr        ....    0.0010
 Zerner damping         CNVZerner       .... off
 Static damping         CNVDamp         .... on
   Fraction old density DampFac         ....    0.7000
   Max. Damping (<1)    DampMax         ....    0.9800
   Min. Damping (>=0)   DampMin         ....    0.0000
   Turn off err/grad.   DampErr         ....    0.1000
 Fernandez-Rico         CNVRico         .... off

SCF Procedure:
 Maximum # iterations   MaxIter         ....   125
 SCF integral mode      SCFMode         .... Direct
   Integral package                     .... LIBINT
 Reset frequency        DirectResetFreq ....    20
 Integral Threshold     Thresh          ....  2.500e-11 Eh
 Primitive CutOff       TCut            ....  2.500e-12 Eh

Convergence Tolerance:
 Convergence Check Mode ConvCheckMode   .... Total+1el-Energy
 Convergence forced     ConvForced      .... 0
 Energy Change          TolE            ....  1.000e-08 Eh
 1-El. energy change                    ....  1.000e-05 Eh
 DIIS Error             TolErr          ....  5.000e-07


Diagonalization of the overlap matrix:
Smallest eigenvalue                        ... 1.506e-03
Time for diagonalization                   ...    0.059 sec
Threshold for overlap eigenvalues          ... 1.000e-08
Number of eigenvalues below threshold      ... 0
Time for construction of square roots      ...    0.041 sec
Total time needed                          ...    0.100 sec

-------------------
DFT GRID GENERATION
-------------------

General Integration Accuracy     IntAcc      ...  4.340
Radial Grid Type                 RadialGrid  ... Gauss-Chebyshev
Angular Grid (max. acc.)         AngularGrid ... Lebedev-110
Angular grid pruning method      GridPruning ... 3 (G Style)
Weight generation scheme         WeightScheme... Becke
Basis function cutoff            BFCut       ...    1.0000e-11
Integration weight cutoff        WCut        ...    1.0000e-14
Grids for H and He will be reduced by one unit

# of grid points (after initial pruning)     ...  56144 (   0.0 sec)
# of grid points (after weights+screening)   ...  48897 (   0.1 sec)
nearest neighbour list constructed           ...    0.0 sec
Grid point re-assignment to atoms done       ...    0.0 sec
Grid point division into batches done        ...    0.0 sec
Reduced shell lists constructed in    0.1 sec

Total number of grid points                  ...    48897
Total number of batches                      ...      790
Average number of points per batch           ...       61
Average number of grid points per atom       ...     1040
Average number of shells per batch           ...   112.06 (52.86%)
Average number of basis functions per batch  ...   223.96 (49.77%)
Average number of large shells per batch     ...    68.48 (61.10%)
Average number of large basis fcns per batch ...   139.90 (62.47%)
Maximum spatial batch extension              ...  14.44, 18.36, 22.01 au
Average spatial batch extension              ...   0.27,  0.30,  0.29 au

Time for grid setup =    0.173 sec

------------------------------
INITIAL GUESS: MODEL POTENTIAL
------------------------------
Loading Hartree-Fock densities                     ... done
Calculating cut-offs                               ... done
Setting up the integral package                    ... done
Initializing the effective Hamiltonian             ... done
Starting the Coulomb interaction                   ... done (   0.1 sec)
Reading the grid                                   ... done
Mapping shells                                     ... done
Starting the XC term evaluation                    ... done (   0.1 sec)
  promolecular density results
     # of electrons  =    184.000378335
     EX              =   -193.295160904
     EC              =     -6.575392852
     EX+EC           =   -199.870553756
Transforming the Hamiltonian                       ... done (   0.0 sec)
Diagonalizing the Hamiltonian                      ... done (   0.0 sec)
Back transforming the eigenvectors                 ... done (   0.0 sec)
Now organizing SCF variables                       ... done
                      ------------------
                      INITIAL GUESS DONE (   0.5 sec)
                      ------------------
--------------
SCF ITERATIONS
--------------
ITER       Energy         Delta-E        Max-DP      RMS-DP      [F,P]     Damp
               ***  Starting incremental Fock matrix formation  ***
  0  -2660.7456199690   0.000000000000 0.09921728  0.00135428  0.1546496 0.7000
  1  -2660.9712986910  -0.225678722016 0.04822529  0.00088104  0.1042828 0.7000
                               ***Turning on DIIS***
  2  -2661.0758254306  -0.104526739626 0.13188703  0.00160183  0.0343232 0.0000
  3  -2661.2179149071  -0.142089476425 0.01092319  0.00018669  0.1041394 0.7000
  4  -2661.2376035185  -0.019688611456 0.03466781  0.00058209  0.0447072 0.0000
  5  -2661.2625501817  -0.024946663199 0.01109572  0.00015689  0.0301469 0.0000
  6  -2661.2642938674  -0.001743685661 0.00314658  0.00005014  0.0178754 0.0000
  7  -2661.2645511124  -0.000257245000 0.00321801  0.00003222  0.0043638 0.0000
  8  -2661.2646145155  -0.000063403102 0.00091199  0.00001088  0.0033107 0.0000
  9  -2661.2646263605  -0.000011845053 0.00028661  0.00000531  0.0005574 0.0000
 10  -2661.2646274469  -0.000001086405 0.00016577  0.00000227  0.0001589 0.0000
 11  -2661.2646277300  -0.000000283088 0.00003448  0.00000071  0.0000731 0.0000
 12  -2661.2646277505  -0.000000020502 0.00001839  0.00000028  0.0000145 0.0000
 13  -2661.2646277305   0.000000020020 0.00001988  0.00000015  0.0000092 0.0000
 14  -2661.2646277365  -0.000000006020 0.00000533  0.00000004  0.0000061 0.0000
 15  -2661.2646277068   0.000000029755 0.00000166  0.00000002  0.0000064 0.0000
                 **** Energy Check signals convergence ****

               *****************************************************
               *                     SUCCESS                       *
               *           SCF CONVERGED AFTER  16 CYCLES          *
               *****************************************************

Setting up the final grid:

General Integration Accuracy     IntAcc      ...  4.670
Radial Grid Type                 RadialGrid  ... Gauss-Chebyshev
Angular Grid (max. acc.)         AngularGrid ... Lebedev-302
Angular grid pruning method      GridPruning ... 3 (G Style)
Weight generation scheme         WeightScheme... Becke
Basis function cutoff            BFCut       ...    1.0000e-11
Integration weight cutoff        WCut        ...    1.0000e-14
Grids for H and He will be reduced by one unit

# of grid points (after initial pruning)     ... 219964 (   0.0 sec)
# of grid points (after weights+screening)   ... 186429 (   0.2 sec)
nearest neighbour list constructed           ...    0.0 sec
Grid point re-assignment to atoms done       ...    0.0 sec
Grid point division into batches done        ...    0.5 sec
Reduced shell lists constructed in    0.7 sec

Total number of grid points                  ...   186429
Total number of batches                      ...     2938
Average number of points per batch           ...       63
Average number of grid points per atom       ...     3967
Average number of shells per batch           ...   103.03 (48.60%)
Average number of basis functions per batch  ...   203.47 (45.22%)
Average number of large shells per batch     ...    62.37 (60.53%)
Average number of large basis fcns per batch ...   127.65 (62.74%)
Maximum spatial batch extension              ...  13.02, 16.79, 15.09 au
Average spatial batch extension              ...   0.19,  0.20,  0.20 au

Final grid set up in    0.9 sec
Final integration                            ... done (   0.4 sec)
Change in XC energy                          ...     0.001533570
Integrated number of electrons               ...   184.000236233
Previous integrated no of electrons          ...   184.006079494

----------------
TOTAL SCF ENERGY
----------------

Total Energy       :        -2661.26309413 Eh          -72416.65038 eV

Components:
Nuclear Repulsion  :         2474.10962979 Eh           67323.94571 eV
Electronic Energy  :        -5135.37272392 Eh         -139740.59609 eV
One Electron Energy:        -8597.61441830 Eh         -233952.98226 eV
Two Electron Energy:         3462.24169438 Eh           94212.38617 eV

Virial components:
Potential Energy   :        -5311.78671717 Eh         -144541.06490 eV
Kinetic Energy     :         2650.52362304 Eh           72124.41452 eV
Virial Ratio       :            2.00405183


DFT components:
N(Alpha)           :       92.000118116387 electrons
N(Beta)            :       92.000118116387 electrons
N(Total)           :      184.000236232773 electrons
E(X)               :     -146.619729778250 Eh       
E(C)               :       -6.582427229188 Eh       
E(XC)              :     -153.202157007437 Eh       
DFET-embed. en.    :        0.000000000000 Eh       

---------------
SCF CONVERGENCE
---------------

  Last Energy change         ...    7.7525e-09  Tolerance :   1.0000e-08
  Last MAX-Density change    ...    1.0211e-06  Tolerance :   1.0000e-07
  Last RMS-Density change    ...    1.7173e-08  Tolerance :   5.0000e-09
  Last DIIS Error            ...    2.5148e-06  Tolerance :   5.0000e-07

             **** THE GBW FILE WAS UPDATED (TEP_Ni.gbw) ****
             **** DENSITY FILE WAS UPDATED (TEP_Ni.scfp) ****
             **** ENERGY FILE WAS UPDATED (TEP_Ni.en.tmp) ****
             **** THE GBW FILE WAS UPDATED (TEP_Ni.gbw) ****
             **** DENSITY FILE WAS UPDATED (TEP_Ni.scfp) ****
----------------
ORBITAL ENERGIES
----------------

  NO   OCC          E(Eh)            E(eV) 
   0   2.0000    -300.141962     -8167.2780 
   1   2.0000     -77.228000     -2101.4807 
   2   2.0000     -35.889492      -976.6027 
   3   2.0000     -31.278132      -851.1212 
   4   2.0000     -31.278086      -851.1200 
   5   2.0000     -31.274047      -851.0101 
   6   2.0000     -19.280631      -524.6526 
   7   2.0000     -19.280508      -524.6493 
   8   2.0000     -19.280475      -524.6484 
   9   2.0000     -10.336204      -281.2624 
  10   2.0000     -10.336154      -281.2610 
  11   2.0000     -10.336116      -281.2600 
  12   2.0000     -10.268177      -279.4113 
  13   2.0000     -10.267983      -279.4060 
  14   2.0000     -10.267807      -279.4012 
  15   2.0000     -10.234523      -278.4955 
  16   2.0000     -10.234497      -278.4948 
  17   2.0000     -10.234231      -278.4876 
  18   2.0000     -10.232490      -278.4402 
  19   2.0000     -10.232436      -278.4387 
  20   2.0000     -10.232411      -278.4380 
  21   2.0000     -10.225420      -278.2478 
  22   2.0000     -10.225261      -278.2435 
  23   2.0000     -10.225240      -278.2429 
  24   2.0000      -6.631192      -180.4439 
  25   2.0000      -4.771186      -129.8306 
  26   2.0000      -4.771163      -129.8299 
  27   2.0000      -4.768938      -129.7694 
  28   2.0000      -4.055148      -110.3462 
  29   2.0000      -2.631082       -71.5954 
  30   2.0000      -2.631015       -71.5936 
  31   2.0000      -2.619034       -71.2675 
  32   2.0000      -1.144600       -31.1462 
  33   2.0000      -1.144346       -31.1392 
  34   2.0000      -1.144280       -31.1374 
  35   2.0000      -0.861528       -23.4434 
  36   2.0000      -0.836774       -22.7698 
  37   2.0000      -0.836695       -22.7676 
  38   2.0000      -0.722413       -19.6579 
  39   2.0000      -0.715187       -19.4612 
  40   2.0000      -0.715059       -19.4577 
  41   2.0000      -0.708014       -19.2660 
  42   2.0000      -0.707955       -19.2644 
  43   2.0000      -0.697306       -18.9746 
  44   2.0000      -0.666025       -18.1235 
  45   2.0000      -0.579018       -15.7559 
  46   2.0000      -0.571175       -15.5425 
  47   2.0000      -0.571142       -15.5416 
  48   2.0000      -0.562470       -15.3056 
  49   2.0000      -0.562421       -15.3043 
  50   2.0000      -0.539799       -14.6887 
  51   2.0000      -0.492229       -13.3942 
  52   2.0000      -0.492157       -13.3923 
  53   2.0000      -0.488874       -13.3029 
  54   2.0000      -0.475327       -12.9343 
  55   2.0000      -0.475295       -12.9334 
  56   2.0000      -0.474590       -12.9142 
  57   2.0000      -0.468804       -12.7568 
  58   2.0000      -0.468736       -12.7550 
  59   2.0000      -0.463956       -12.6249 
  60   2.0000      -0.458995       -12.4899 
  61   2.0000      -0.458944       -12.4885 
  62   2.0000      -0.458237       -12.4693 
  63   2.0000      -0.454674       -12.3723 
  64   2.0000      -0.450491       -12.2585 
  65   2.0000      -0.450433       -12.2569 
  66   2.0000      -0.441472       -12.0131 
  67   2.0000      -0.441458       -12.0127 
  68   2.0000      -0.431245       -11.7348 
  69   2.0000      -0.419595       -11.4178 
  70   2.0000      -0.411957       -11.2099 
  71   2.0000      -0.411885       -11.2079 
  72   2.0000      -0.403004       -10.9663 
  73   2.0000      -0.402950       -10.9648 
  74   2.0000      -0.395741       -10.7687 
  75   2.0000      -0.387335       -10.5399 
  76   2.0000      -0.383687       -10.4407 
  77   2.0000      -0.383639       -10.4394 
  78   2.0000      -0.364137        -9.9087 
  79   2.0000      -0.364100        -9.9077 
  80   2.0000      -0.362391        -9.8612 
  81   2.0000      -0.349405        -9.5078 
  82   2.0000      -0.349281        -9.5044 
  83   2.0000      -0.332856        -9.0575 
  84   2.0000      -0.309489        -8.4216 
  85   2.0000      -0.309463        -8.4209 
  86   2.0000      -0.302588        -8.2338 
  87   2.0000      -0.283418        -7.7122 
  88   2.0000      -0.283299        -7.7090 
  89   2.0000      -0.238603        -6.4927 
  90   2.0000      -0.238495        -6.4898 
  91   2.0000      -0.224675        -6.1137 
  92   0.0000      -0.024391        -0.6637 
  93   0.0000      -0.003950        -0.1075 
  94   0.0000      -0.003925        -0.1068 
  95   0.0000       0.016300         0.4436 
  96   0.0000       0.016543         0.4502 
  97   0.0000       0.019120         0.5203 
  98   0.0000       0.053986         1.4690 
  99   0.0000       0.059782         1.6267 
 100   0.0000       0.059900         1.6299 
 101   0.0000       0.064321         1.7503 
 102   0.0000       0.081926         2.2293 
 103   0.0000       0.082145         2.2353 
 104   0.0000       0.087305         2.3757 
 105   0.0000       0.094762         2.5786 
 106   0.0000       0.104110         2.8330 
 107   0.0000       0.104459         2.8425 
 108   0.0000       0.121140         3.2964 
 109   0.0000       0.121723         3.3123 
 110   0.0000       0.122109         3.3227 
 111   0.0000       0.136773         3.7218 
 112   0.0000       0.137003         3.7281 
 113   0.0000       0.137438         3.7399 
 114   0.0000       0.152386         4.1466 
 115   0.0000       0.152903         4.1607 
 116   0.0000       0.153111         4.1664 
 117   0.0000       0.164296         4.4707 
 118   0.0000       0.171602         4.6695 
 119   0.0000       0.172056         4.6819 
 120   0.0000       0.176170         4.7938 
 121   0.0000       0.179185         4.8759 
 122   0.0000       0.179743         4.8911 
 123   0.0000       0.193178         5.2566 
 124   0.0000       0.199528         5.4294 
 125   0.0000       0.199982         5.4418 
 126   0.0000       0.212104         5.7716 
 127   0.0000       0.212866         5.7924 
 128   0.0000       0.213688         5.8147 
 129   0.0000       0.220394         5.9972 
 130   0.0000       0.220722         6.0061 
 131   0.0000       0.226014         6.1502 
 132   0.0000       0.233059         6.3418 
 133   0.0000       0.233851         6.3634 
 134   0.0000       0.237041         6.4502 
 135   0.0000       0.261120         7.1054 
 136   0.0000       0.281239         7.6529 
 137   0.0000       0.281684         7.6650 
 138   0.0000       0.288659         7.8548 
 139   0.0000       0.289424         7.8756 
 140   0.0000       0.294454         8.0125 
 141   0.0000       0.320556         8.7228 
 142   0.0000       0.351639         9.5686 
 143   0.0000       0.352088         9.5808 
 144   0.0000       0.372098        10.1253 
 145   0.0000       0.390046        10.6137 
 146   0.0000       0.390664        10.6305 
 147   0.0000       0.403724        10.9859 
 148   0.0000       0.418567        11.3898 
 149   0.0000       0.430680        11.7194 
 150   0.0000       0.431103        11.7309 
 151   0.0000       0.431969        11.7545 
 152   0.0000       0.432078        11.7574 
 153   0.0000       0.446413        12.1475 
 154   0.0000       0.457346        12.4450 
 155   0.0000       0.457597        12.4518 
 156   0.0000       0.490318        13.3422 
 157   0.0000       0.504217        13.7204 
 158   0.0000       0.504313        13.7231 
 159   0.0000       0.519342        14.1320 
 160   0.0000       0.519397        14.1335 
 161   0.0000       0.531406        14.4603 
 162   0.0000       0.539699        14.6860 
 163   0.0000       0.540068        14.6960 
 164   0.0000       0.549016        14.9395 
 165   0.0000       0.568460        15.4686 
 166   0.0000       0.571387        15.5482 
 167   0.0000       0.584747        15.9118 
 168   0.0000       0.588336        16.0094 
 169   0.0000       0.588620        16.0172 
 170   0.0000       0.601317        16.3627 
 171   0.0000       0.601905        16.3787 
 172   0.0000       0.625098        17.0098 
 173   0.0000       0.628185        17.0938 
 174   0.0000       0.628666        17.1069 
 175   0.0000       0.635633        17.2965 
 176   0.0000       0.638300        17.3690 
 177   0.0000       0.638428        17.3725 
 178   0.0000       0.650658        17.7053 
 179   0.0000       0.650974        17.7139 
 180   0.0000       0.660805        17.9814 
 181   0.0000       0.662487        18.0272 
 182   0.0000       0.663169        18.0457 
 183   0.0000       0.671419        18.2702 
 184   0.0000       0.675538        18.3823 
 185   0.0000       0.675697        18.3867 
 186   0.0000       0.690916        18.8008 
 187   0.0000       0.691621        18.8200 
 188   0.0000       0.691767        18.8239 
 189   0.0000       0.699185        19.0258 
 190   0.0000       0.704596        19.1730 
 191   0.0000       0.704804        19.1787 
 192   0.0000       0.706962        19.2374 
 193   0.0000       0.708319        19.2743 
 194   0.0000       0.708425        19.2772 
 195   0.0000       0.715455        19.4685 
 196   0.0000       0.731613        19.9082 
 197   0.0000       0.731960        19.9176 
 198   0.0000       0.733090        19.9484 
 199   0.0000       0.737501        20.0684 
 200   0.0000       0.737845        20.0778 
 201   0.0000       0.738120        20.0853 
 202   0.0000       0.750006        20.4087 
 203   0.0000       0.755994        20.5716 
 204   0.0000       0.756154        20.5760 
 205   0.0000       0.760766        20.7015 
 206   0.0000       0.765820        20.8390 
 207   0.0000       0.766021        20.8445 
 208   0.0000       0.769456        20.9380 
 209   0.0000       0.773557        21.0496 
 210   0.0000       0.773662        21.0524 
 211   0.0000       0.789586        21.4857 
 212   0.0000       0.790287        21.5048 
 213   0.0000       0.791205        21.5298 
 214   0.0000       0.799799        21.7636 
 215   0.0000       0.800627        21.7862 
 216   0.0000       0.820381        22.3237 
 217   0.0000       0.824954        22.4481 
 218   0.0000       0.825374        22.4596 
 219   0.0000       0.827600        22.5201 
 220   0.0000       0.844530        22.9808 
 221   0.0000       0.848771        23.0962 
 222   0.0000       0.849320        23.1112 
 223   0.0000       0.880168        23.9506 
 224   0.0000       0.881818        23.9955 
 225   0.0000       0.893269        24.3071 
 226   0.0000       0.893431        24.3115 
 227   0.0000       0.906416        24.6648 
 228   0.0000       0.912499        24.8304 
 229   0.0000       0.923153        25.1203 
 230   0.0000       0.923874        25.1399 
 231   0.0000       0.963453        26.2169 
 232   0.0000       0.964495        26.2452 
 233   0.0000       0.967743        26.3336 
 234   0.0000       1.036846        28.2140 
 235   0.0000       1.037350        28.2277 
 236   0.0000       1.044069        28.4106 
 237   0.0000       1.049820        28.5671 
 238   0.0000       1.050409        28.5831 
 239   0.0000       1.065209        28.9858 
 240   0.0000       1.082116        29.4459 
 241   0.0000       1.104869        30.0650 
 242   0.0000       1.107545        30.1378 
 243   0.0000       1.107881        30.1470 
 244   0.0000       1.111191        30.2370 
 245   0.0000       1.121497        30.5175 
 246   0.0000       1.121800        30.5257 
 247   0.0000       1.129425        30.7332 
 248   0.0000       1.161122        31.5957 
 249   0.0000       1.162219        31.6256 
 250   0.0000       1.162536        31.6342 
 251   0.0000       1.171046        31.8658 
 252   0.0000       1.171269        31.8718 
 253   0.0000       1.194209        32.4961 
 254   0.0000       1.194361        32.5002 
 255   0.0000       1.223533        33.2940 
 256   0.0000       1.243219        33.8297 
 257   0.0000       1.244006        33.8511 
 258   0.0000       1.257310        34.2132 
 259   0.0000       1.257544        34.2195 
 260   0.0000       1.276160        34.7261 
 261   0.0000       1.317886        35.8615 
 262   0.0000       1.319604        35.9083 
 263   0.0000       1.319774        35.9129 
 264   0.0000       1.365207        37.1492 
 265   0.0000       1.365303        37.1518 
 266   0.0000       1.446667        39.3658 
 267   0.0000       1.490598        40.5612 
 268   0.0000       1.490645        40.5625 
 269   0.0000       1.496513        40.7222 
 270   0.0000       1.508270        41.0421 
 271   0.0000       1.508409        41.0459 
 272   0.0000       1.523250        41.4497 
 273   0.0000       1.536785        41.8180 
 274   0.0000       1.537094        41.8265 
 275   0.0000       1.555789        42.3352 
 276   0.0000       1.555847        42.3368 
 277   0.0000       1.556980        42.3676 
 278   0.0000       1.565253        42.5927 
 279   0.0000       1.565504        42.5995 
 280   0.0000       1.571005        42.7492 
 281   0.0000       1.583805        43.0975 
 282   0.0000       1.584188        43.1079 
 283   0.0000       1.585704        43.1492 
 284   0.0000       1.586074        43.1593 
 285   0.0000       1.591217        43.2992 
 286   0.0000       1.601574        43.5810 
 287   0.0000       1.622700        44.1559 
 288   0.0000       1.623053        44.1655 
 289   0.0000       1.625879        44.2424 
 290   0.0000       1.633276        44.4437 
 291   0.0000       1.647461        44.8297 
 292   0.0000       1.655632        45.0520 
 293   0.0000       1.655956        45.0608 
 294   0.0000       1.676512        45.6202 
 295   0.0000       1.682112        45.7726 
 296   0.0000       1.682292        45.7775 
 297   0.0000       1.691734        46.0344 
 298   0.0000       1.704771        46.3892 
 299   0.0000       1.705129        46.3989 
 300   0.0000       1.740626        47.3648 
 301   0.0000       1.765744        48.0483 
 302   0.0000       1.766084        48.0576 
 303   0.0000       1.776663        48.3455 
 304   0.0000       1.776805        48.3493 
 305   0.0000       1.782464        48.5033 
 306   0.0000       1.782991        48.5177 
 307   0.0000       1.783900        48.5424 
 308   0.0000       1.788814        48.6761 
 309   0.0000       1.807104        49.1738 
 310   0.0000       1.807399        49.1818 
 311   0.0000       1.821785        49.5733 
 312   0.0000       1.827572        49.7308 
 313   0.0000       1.827772        49.7362 
 314   0.0000       1.828092        49.7449 
 315   0.0000       1.841325        50.1050 
 316   0.0000       1.862101        50.6704 
 317   0.0000       1.862392        50.6783 
 318   0.0000       1.863926        50.7200 
 319   0.0000       1.882231        51.2181 
 320   0.0000       1.882483        51.2250 
 321   0.0000       1.886514        51.3346 
 322   0.0000       1.898143        51.6511 
 323   0.0000       1.898599        51.6635 
 324   0.0000       1.919472        52.2315 
 325   0.0000       1.920150        52.2499 
 326   0.0000       1.920326        52.2547 
 327   0.0000       1.936721        52.7009 
 328   0.0000       1.937311        52.7169 
 329   0.0000       1.937875        52.7323 
 330   0.0000       1.952288        53.1245 
 331   0.0000       1.958036        53.2809 
 332   0.0000       1.958174        53.2846 
 333   0.0000       1.970973        53.6329 
 334   0.0000       1.981039        53.9068 
 335   0.0000       1.981317        53.9144 
 336   0.0000       1.986414        54.0531 
 337   0.0000       1.986794        54.0634 
 338   0.0000       2.004751        54.5520 
 339   0.0000       2.015332        54.8400 
 340   0.0000       2.015519        54.8451 
 341   0.0000       2.024214        55.0817 
 342   0.0000       2.037068        55.4314 
 343   0.0000       2.037188        55.4347 
 344   0.0000       2.048965        55.7552 
 345   0.0000       2.054597        55.9084 
 346   0.0000       2.054854        55.9154 
 347   0.0000       2.165508        58.9265 
 348   0.0000       2.173206        59.1359 
 349   0.0000       2.173479        59.1434 
 350   0.0000       2.187715        59.5308 
 351   0.0000       2.201748        59.9126 
 352   0.0000       2.202082        59.9217 
 353   0.0000       2.203446        59.9588 
 354   0.0000       2.203740        59.9668 
 355   0.0000       2.210545        60.1520 
 356   0.0000       2.233600        60.7793 
 357   0.0000       2.236281        60.8523 
 358   0.0000       2.236660        60.8626 
 359   0.0000       2.273509        61.8653 
 360   0.0000       2.273752        61.8719 
 361   0.0000       2.275320        61.9146 
 362   0.0000       2.386164        64.9308 
 363   0.0000       2.393195        65.1222 
 364   0.0000       2.393328        65.1258 
 365   0.0000       2.429318        66.1051 
 366   0.0000       2.429358        66.1062 
 367   0.0000       2.444334        66.5137 
 368   0.0000       2.444875        66.5284 
 369   0.0000       2.445025        66.5325 
 370   0.0000       2.460775        66.9611 
 371   0.0000       2.471455        67.2517 
 372   0.0000       2.471663        67.2574 
 373   0.0000       2.489474        67.7420 
 374   0.0000       2.520370        68.5828 
 375   0.0000       2.522098        68.6298 
 376   0.0000       2.522423        68.6386 
 377   0.0000       2.565952        69.8231 
 378   0.0000       2.581647        70.2502 
 379   0.0000       2.581790        70.2541 
 380   0.0000       2.587053        70.3973 
 381   0.0000       2.601101        70.7796 
 382   0.0000       2.601179        70.7817 
 383   0.0000       2.633583        71.6634 
 384   0.0000       2.637269        71.7637 
 385   0.0000       2.637366        71.7664 
 386   0.0000       2.641942        71.8909 
 387   0.0000       2.642100        71.8952 
 388   0.0000       2.642293        71.9004 
 389   0.0000       2.649201        72.0884 
 390   0.0000       2.654210        72.2247 
 391   0.0000       2.654317        72.2276 
 392   0.0000       2.662215        72.4425 
 393   0.0000       2.675256        72.7974 
 394   0.0000       2.675309        72.7989 
 395   0.0000       2.675371        72.8006 
 396   0.0000       2.686241        73.0963 
 397   0.0000       2.686364        73.0997 
 398   0.0000       2.742931        74.6389 
 399   0.0000       2.765110        75.2425 
 400   0.0000       2.766659        75.2846 
 401   0.0000       2.766784        75.2880 
 402   0.0000       2.882137        78.4269 
 403   0.0000       2.892115        78.6985 
 404   0.0000       2.892154        78.6995 
 405   0.0000       2.916795        79.3700 
 406   0.0000       2.917051        79.3770 
 407   0.0000       2.925171        79.5979 
 408   0.0000       2.925439        79.6052 
 409   0.0000       2.931200        79.7620 
 410   0.0000       2.933742        79.8312 
 411   0.0000       2.950970        80.3000 
 412   0.0000       2.951037        80.3018 
 413   0.0000       2.978574        81.0511 
 414   0.0000       2.982960        81.1705 
 415   0.0000       2.983046        81.1728 
 416   0.0000       3.005388        81.7808 
 417   0.0000       3.005528        81.7846 
 418   0.0000       3.005659        81.7881 
 419   0.0000       3.015358        82.0521 
 420   0.0000       3.058732        83.2323 
 421   0.0000       3.058971        83.2388 
 422   0.0000       3.091233        84.1167 
 423   0.0000       3.104605        84.4806 
 424   0.0000       3.104752        84.4846 
 425   0.0000       3.120252        84.9064 
 426   0.0000       3.162460        86.0549 
 427   0.0000       3.162665        86.0605 
 428   0.0000       3.187426        86.7343 
 429   0.0000       3.224600        87.7458 
 430   0.0000       3.248746        88.4029 
[...]
  37:       367.44    2.335791  ( -0.208195   0.932727  -1.192672)
  38:       368.48    2.372599  (  1.462937  -0.231546  -0.422848)
  39:       373.57    0.857094  ( -0.262953  -0.683711  -0.566118)
  40:       395.53    1.386490  (  0.064442  -0.695180   0.948188)
  41:       396.52    1.400877  ( -1.142892   0.237712   0.195365)
  42:       420.28    0.303799  (  0.141686   0.398533   0.353405)
  43:       427.75    1.493383  ( -0.083014  -0.660452   1.024839)
  44:       428.14    1.617295  (  1.218371  -0.345585  -0.115926)
  45:       437.35   10.567140  ( -1.064519  -2.575268  -1.673897)
  46:       476.77   35.505983  (  0.816678  -3.588069   4.686660)
  47:       477.46   32.647081  (  5.212028  -0.859089  -2.178030)
  48:       479.06   12.709642  (  2.975395  -1.830685   0.710813)
  49:       479.68    6.762879  (  1.292029   0.836098  -2.096301)
  50:       499.39   45.697685  ( -2.366303  -5.217959  -3.587646)
  51:       513.22    0.544188  ( -0.382420  -0.521622  -0.354757)
  52:       514.99    1.472998  ( -1.052563   0.589691   0.131813)
  53:       515.24    1.411363  ( -0.186261  -0.499609   1.061631)
  54:       572.58   10.765091  ( -1.098472  -2.559518  -1.734162)
  55:       605.90   10.505978  ( -3.023356   0.749338   0.896544)
  56:       606.74   10.653722  ( -0.278996   1.912664  -2.630133)
  57:       837.99   13.468883  (  2.698240   0.379729  -2.458494)
  58:       838.24   13.314133  ( -2.166047   2.091517  -2.061051)
  59:       840.77    3.537714  ( -0.505604  -1.669362  -0.703783)
  60:       943.38    1.245279  ( -0.342468  -0.610942   0.868761)
  61:       943.85    1.240185  ( -0.991033   0.497453  -0.102856)
  62:       946.08    3.297262  ( -0.584262  -1.378552  -1.027372)
  63:       950.16    0.143114  (  0.243218   0.201450   0.208271)
  64:       950.27    0.046484  (  0.101589   0.014877  -0.189585)
  65:       950.84    1.502481  ( -0.446172  -0.883016  -0.723667)
  66:       953.98    2.295275  ( -0.434011  -0.728196   1.255643)
  67:       954.61    2.312156  (  1.362833  -0.672884   0.045500)
  68:       955.76    0.043601  ( -0.140698   0.039211  -0.149223)
  69:      1015.04    0.015899  (  0.010266   0.125667  -0.001184)
  70:      1024.75    2.821197  ( -0.777898   1.110142  -0.991795)
  71:      1025.03    2.676041  (  1.376548   0.077632  -0.880415)
  72:      1030.92    1.304877  ( -0.663918  -0.268649   0.889897)
  73:      1031.49    1.155019  ( -0.743952   0.723897  -0.278438)
  74:      1033.62   13.987440  ( -1.279684  -2.869746  -2.028400)
  75:      1189.94   23.191136  ( -4.457835   0.626512   1.710650)
  76:      1190.28   22.516373  ( -1.011804   2.720769  -3.753671)
  77:      1196.53   13.997577  ( -1.130465  -3.029924  -1.881273)
  78:      1212.12    0.654351  ( -0.199814  -0.664455  -0.415843)
  79:      1222.06    0.085378  ( -0.263972   0.108049  -0.063421)
  80:      1222.38    0.055914  ( -0.036144  -0.093729   0.214062)
  81:      1236.32    0.422337  ( -0.393799  -0.202928   0.475478)
  82:      1236.77    0.342702  (  0.461621  -0.255301   0.253829)
  83:      1237.64    0.327274  ( -0.074110  -0.492075  -0.282213)
  84:      1370.08    0.717173  ( -0.551803   0.006698  -0.642372)
  85:      1372.64    4.864362  ( -1.887321   1.133453   0.132909)
  86:      1373.20    4.664055  (  0.667123   1.022167  -1.781622)
  87:      1378.90   10.716482  ( -1.316517  -2.539241  -1.592332)
  88:      1380.15    0.916153  ( -0.170453   0.108900   0.935542)
  89:      1380.83    1.286446  ( -0.282141   1.048790   0.326929)
  90:      1400.66   33.090576  ( -5.417128   1.288464   1.444007)
  91:      1401.19   32.622219  ( -0.457454   3.295175  -4.642712)
  92:      1413.52    2.209921  ( -0.409035  -1.174150  -0.814852)
  93:      1440.47    0.161371  ( -0.193667   0.318926  -0.148830)
  94:      1441.09    0.140263  (  0.301568   0.057709  -0.214451)
  95:      1445.81    0.288521  (  0.260609   0.427024   0.195587)
  96:      1452.85    0.883638  (  0.472372   0.698495   0.415461)
  97:      1457.27    2.559248  (  1.389317  -0.737618   0.291490)
  98:      1458.19    2.511929  ( -0.622260  -0.490266   1.372720)
  99:      1460.68    8.047558  ( -0.787863  -2.280944  -1.491350)
 100:      1463.74    1.225922  (  0.911211  -0.547365   0.309851)
 101:      1464.01    1.432971  (  0.672882   0.531250  -0.835448)
 102:      1470.49    3.905844  (  1.046729   0.533080  -1.589349)
 103:      1471.06    4.339115  ( -1.702424   1.023148  -0.627722)
 104:      1472.53    3.584670  (  0.603388   1.517849   0.957459)
 105:      1481.44    4.749163  ( -0.909098  -1.482265  -1.313619)
 106:      1482.38    4.954102  (  0.106559   1.391454  -1.733956)
 107:      1482.84    4.971154  ( -1.971132   0.811581   0.653551)
 108:      1494.15    2.407915  ( -0.848814  -1.122656  -0.653509)
 109:      1497.85   15.194663  (  3.536556  -0.635340  -1.511217)
 110:      1498.30   15.524052  (  0.848597  -2.417962   2.992890)
 111:      2118.95  927.031789  ( 26.223562  -1.202004 -15.424390)
 112:      2119.50  926.888989  ( 11.432634 -18.962148  20.895473)
 113:      2180.87  388.508854  ( -6.703076 -15.479839 -10.195696)
 114:      3053.17   14.677074  ( -2.321199   3.031954   0.310422)
 115:      3054.04   17.491527  (  0.973374  -0.983846   3.946659)
 116:      3056.14   14.632146  ( -3.133086  -1.637863   1.460590)
 117:      3056.58   17.555986  ( -3.169276  -1.545313  -2.263556)
 118:      3058.50   10.268834  ( -0.923509   3.062968  -0.184908)
 119:      3059.53    4.260843  (  1.146136   1.550409   0.737189)
 120:      3060.90   65.553380  (  7.642344  -0.009166  -2.673551)
 121:      3061.96   64.115312  (  1.673681  -5.452212   5.620275)
 122:      3064.42   38.526044  ( -0.229759   4.173123   4.588932)
 123:      3146.92    4.080530  ( -0.146779  -1.975424   0.395835)
 124:      3148.38    4.417630  (  0.917679  -1.225664   1.439876)
 125:      3149.01   28.247166  (  5.174480  -1.047538   0.612031)
 126:      3149.51   38.510819  ( -1.406772  -1.622370   5.822347)
 127:      3150.17   17.707673  ( -3.590428   1.816966   1.230909)
 128:      3151.47   17.867372  (  1.150682   4.035335   0.509290)
 129:      3152.23    0.718672  (  0.739489  -0.408312  -0.071477)
 130:      3152.71   10.807224  ( -0.680955   1.830436  -2.644433)
 131:      3156.28    1.355862  (  1.137598   0.114618   0.220445)
 132:      3188.64    8.632824  (  0.310095  -2.720143  -1.066531)
 133:      3191.22   10.244320  ( -1.716796  -1.505218  -2.243045)
 134:      3191.44    4.875507  ( -1.249181  -1.764988   0.447070)
 135:      3194.42    1.554124  (  0.535255   0.938785   0.621537)
 136:      3196.78    7.715168  ( -2.554011   1.084552   0.126268)
 137:      3197.33    7.298009  (  0.730032   1.223857  -2.295046)
 138:      3200.79    5.644608  ( -1.777587   1.565345  -0.185717)
 139:      3203.48    5.004945  ( -2.022447  -0.198346   0.935581)
 140:      3204.45    5.625654  ( -0.145131   1.044703  -2.124426)

The first frequency considered to be a vibration is 6
The total number of vibrations considered is 135


--------------------------
THERMOCHEMISTRY AT 298.15K
--------------------------

Temperature         ... 298.15 K
Pressure            ... 1.00 atm
Total Mass          ... 345.05 AMU

Throughout the following assumptions are being made:
  (1) The electronic state is orbitally nondegenerate
  (2) There are no thermally accessible electronically excited states
  (3) Hindered rotations indicated by low frequency modes are not
      treated as such but are treated as vibrations and this may
      cause some error
  (4) All equations used are the standard statistical mechanics
      equations for an ideal gas
  (5) All vibrations are strictly harmonic

freq.      32.84  E(vib)   ...       0.55 
freq.      62.23  E(vib)   ...       0.51 
freq.      63.66  E(vib)   ...       0.51 
freq.      72.06  E(vib)   ...       0.50 
freq.      72.88  E(vib)   ...       0.49 
freq.      75.90  E(vib)   ...       0.49 
freq.     112.27  E(vib)   ...       0.45 
freq.     112.77  E(vib)   ...       0.45 
freq.     133.31  E(vib)   ...       0.42 
freq.     135.38  E(vib)   ...       0.42 
freq.     160.77  E(vib)   ...       0.39 
freq.     165.99  E(vib)   ...       0.39 
freq.     204.78  E(vib)   ...       0.35 
freq.     205.32  E(vib)   ...       0.35 
freq.     212.62  E(vib)   ...       0.34 
freq.     213.72  E(vib)   ...       0.34 
freq.     218.15  E(vib)   ...       0.33 
freq.     232.37  E(vib)   ...       0.32 
freq.     253.49  E(vib)   ...       0.30 
freq.     255.24  E(vib)   ...       0.30 
freq.     267.86  E(vib)   ...       0.29 
freq.     269.86  E(vib)   ...       0.29 
freq.     269.93  E(vib)   ...       0.29 
freq.     292.52  E(vib)   ...       0.27 
freq.     298.67  E(vib)   ...       0.26 
freq.     299.51  E(vib)   ...       0.26 
freq.     304.56  E(vib)   ...       0.26 
freq.     307.86  E(vib)   ...       0.26 
freq.     327.89  E(vib)   ...       0.24 
freq.     339.05  E(vib)   ...       0.23 
freq.     342.34  E(vib)   ...       0.23 
freq.     367.44  E(vib)   ...       0.21 
freq.     368.48  E(vib)   ...       0.21 
freq.     373.57  E(vib)   ...       0.21 
freq.     395.53  E(vib)   ...       0.20 
freq.     396.52  E(vib)   ...       0.20 
freq.     420.28  E(vib)   ...       0.18 
freq.     427.75  E(vib)   ...       0.18 
freq.     428.14  E(vib)   ...       0.18 
freq.     437.35  E(vib)   ...       0.17 
freq.     476.77  E(vib)   ...       0.15 
freq.     477.46  E(vib)   ...       0.15 
freq.     479.06  E(vib)   ...       0.15 
freq.     479.68  E(vib)   ...       0.15 
freq.     499.39  E(vib)   ...       0.14 
freq.     513.22  E(vib)   ...       0.13 
freq.     514.99  E(vib)   ...       0.13 
freq.     515.24  E(vib)   ...       0.13 
freq.     572.58  E(vib)   ...       0.11 
freq.     605.90  E(vib)   ...       0.10 
freq.     606.74  E(vib)   ...       0.10 
freq.     837.99  E(vib)   ...       0.04 
freq.     838.24  E(vib)   ...       0.04 
freq.     840.77  E(vib)   ...       0.04 
freq.     943.38  E(vib)   ...       0.03 
freq.     943.85  E(vib)   ...       0.03 
freq.     946.08  E(vib)   ...       0.03 
freq.     950.16  E(vib)   ...       0.03 
freq.     950.27  E(vib)   ...       0.03 
freq.     950.84  E(vib)   ...       0.03 
freq.     953.98  E(vib)   ...       0.03 
freq.     954.61  E(vib)   ...       0.03 
freq.     955.76  E(vib)   ...       0.03 
freq.    1015.04  E(vib)   ...       0.02 
freq.    1024.75  E(vib)   ...       0.02 
freq.    1025.03  E(vib)   ...       0.02 
freq.    1030.92  E(vib)   ...       0.02 
freq.    1031.49  E(vib)   ...       0.02 
freq.    1033.62  E(vib)   ...       0.02 
freq.    1189.94  E(vib)   ...       0.01 
freq.    1190.28  E(vib)   ...       0.01 
freq.    1196.53  E(vib)   ...       0.01 
freq.    1212.12  E(vib)   ...       0.01 
freq.    1222.06  E(vib)   ...       0.01 
freq.    1222.38  E(vib)   ...       0.01 
freq.    1236.32  E(vib)   ...       0.01 
freq.    1236.77  E(vib)   ...       0.01 
freq.    1237.64  E(vib)   ...       0.01 
freq.    1370.08  E(vib)   ...       0.01 
freq.    1372.64  E(vib)   ...       0.01 
freq.    1373.20  E(vib)   ...       0.01 
freq.    1378.90  E(vib)   ...       0.01 
freq.    1380.15  E(vib)   ...       0.01 
freq.    1380.83  E(vib)   ...       0.01 
freq.    1400.66  E(vib)   ...       0.00 
freq.    1401.19  E(vib)   ...       0.00 
freq.    1413.52  E(vib)   ...       0.00 
freq.    1440.47  E(vib)   ...       0.00 
freq.    1441.09  E(vib)   ...       0.00 
freq.    1445.81  E(vib)   ...       0.00 
freq.    1452.85  E(vib)   ...       0.00 
freq.    1457.27  E(vib)   ...       0.00 
freq.    1458.19  E(vib)   ...       0.00 
freq.    1460.68  E(vib)   ...       0.00 
freq.    1463.74  E(vib)   ...       0.00 
freq.    1464.01  E(vib)   ...       0.00 
freq.    1470.49  E(vib)   ...       0.00 
freq.    1471.06  E(vib)   ...       0.00 
freq.    1472.53  E(vib)   ...       0.00 
freq.    1481.44  E(vib)   ...       0.00 
freq.    1482.38  E(vib)   ...       0.00 
freq.    1482.84  E(vib)   ...       0.00 
freq.    1494.15  E(vib)   ...       0.00 
freq.    1497.85  E(vib)   ...       0.00 
freq.    1498.30  E(vib)   ...       0.00 
freq.    2118.95  E(vib)   ...       0.00 
freq.    2119.50  E(vib)   ...       0.00 
freq.    2180.87  E(vib)   ...       0.00 
freq.    3053.17  E(vib)   ...       0.00 
freq.    3054.04  E(vib)   ...       0.00 
freq.    3056.14  E(vib)   ...       0.00 
freq.    3056.58  E(vib)   ...       0.00 
freq.    3058.50  E(vib)   ...       0.00 
freq.    3059.53  E(vib)   ...       0.00 
freq.    3060.90  E(vib)   ...       0.00 
freq.    3061.96  E(vib)   ...       0.00 
freq.    3064.42  E(vib)   ...       0.00 
freq.    3146.92  E(vib)   ...       0.00 
freq.    3148.38  E(vib)   ...       0.00 
freq.    3149.01  E(vib)   ...       0.00 
freq.    3149.51  E(vib)   ...       0.00 
freq.    3150.17  E(vib)   ...       0.00 
freq.    3151.47  E(vib)   ...       0.00 
freq.    3152.23  E(vib)   ...       0.00 
freq.    3152.71  E(vib)   ...       0.00 
freq.    3156.28  E(vib)   ...       0.00 
freq.    3188.64  E(vib)   ...       0.00 
freq.    3191.22  E(vib)   ...       0.00 
freq.    3191.44  E(vib)   ...       0.00 
freq.    3194.42  E(vib)   ...       0.00 
freq.    3196.78  E(vib)   ...       0.00 
freq.    3197.33  E(vib)   ...       0.00 
freq.    3200.79  E(vib)   ...       0.00 
freq.    3203.48  E(vib)   ...       0.00 
freq.    3204.45  E(vib)   ...       0.00 

------------
INNER ENERGY
------------

The inner energy is: U= E(el) + E(ZPE) + E(vib) + E(rot) + E(trans)
    E(el)   - is the total energy from the electronic structure calculation
              = E(kin-el) + E(nuc-el) + E(el-el) + E(nuc-nuc)
    E(ZPE)  - the the zero temperature vibrational energy from the frequency calculation
    E(vib)  - the the finite temperature correction to E(ZPE) due to population
              of excited vibrational states
    E(rot)  - is the rotational thermal energy
    E(trans)- is the translational thermal energy

Summary of contributions to the inner energy U:
Electronic energy                ...  -2661.33849750 Eh
Zero point energy                ...      0.39598838 Eh     248.49 kcal/mol
Thermal vibrational correction   ...      0.02386562 Eh      14.98 kcal/mol
Thermal rotational correction    ...      0.00141627 Eh       0.89 kcal/mol
Thermal translational correction ...      0.00141627 Eh       0.89 kcal/mol
-----------------------------------------------------------------------
Total thermal energy                  -2660.91581095 Eh


Summary of corrections to the electronic energy:
(perhaps to be used in another calculation)
Total thermal correction                  0.02669816 Eh      16.75 kcal/mol
Non-thermal (ZPE) correction              0.39598838 Eh     248.49 kcal/mol
-----------------------------------------------------------------------
Total correction                          0.42268654 Eh     265.24 kcal/mol


--------
ENTHALPY
--------

The enthalpy is H = U + kB*T
                kB is Boltzmann's constant
Total free energy                 ...  -2660.91581095 Eh 
Thermal Enthalpy correction       ...      0.00094421 Eh       0.59 kcal/mol
-----------------------------------------------------------------------
Total Enthalpy                    ...  -2660.91486674 Eh


Note: Only C1 symmetry has been detected, increase convergence thresholds 
      if your molecule has a higher symmetry. Symmetry factor of 1.0 is   
      used for the rotational entropy correction. 
 

Note: Rotational entropy computed according to Herzberg 
Infrared and Raman Spectra, Chapter V,1, Van Nostrand Reinhold, 1945 
Point Group:  C1, Symmetry Number:   1  
Rotational constants in cm-1:     0.010992     0.008683     0.008677 

Vibrational entropy computed according to the QRRHO of S. Grimme
Chem.Eur.J. 2012 18 9955


-------
ENTROPY
-------

The entropy contributions are T*S = T*(S(el)+S(vib)+S(rot)+S(trans))
     S(el)   - electronic entropy
     S(vib)  - vibrational entropy
     S(rot)  - rotational entropy
     S(trans)- translational entropy
The entropies will be listed as mutliplied by the temperature to get
units of energy

Electronic entropy                ...      0.00000000 Eh      0.00 kcal/mol
Vibrational entropy               ...      0.04134922 Eh     25.95 kcal/mol
Rotational entropy                ...      0.01612202 Eh     10.12 kcal/mol
Translational entropy             ...      0.02062533 Eh     12.94 kcal/mol
-----------------------------------------------------------------------
Final entropy term                ...      0.07809657 Eh     49.01 kcal/mol

In case the symmetry of your molecule has not been determined correctly
or in case you have a reason to use a different symmetry number we print 
out the resulting rotational entropy values for sn=1,12 :
 --------------------------------------------------------
|  sn= 1 | S(rot)=       0.01612202 Eh     10.12 kcal/mol|
|  sn= 2 | S(rot)=       0.01546756 Eh      9.71 kcal/mol|
|  sn= 3 | S(rot)=       0.01508473 Eh      9.47 kcal/mol|
|  sn= 4 | S(rot)=       0.01481311 Eh      9.30 kcal/mol|
|  sn= 5 | S(rot)=       0.01460242 Eh      9.16 kcal/mol|
|  sn= 6 | S(rot)=       0.01443028 Eh      9.06 kcal/mol|
|  sn= 7 | S(rot)=       0.01428473 Eh      8.96 kcal/mol|
|  sn= 8 | S(rot)=       0.01415865 Eh      8.88 kcal/mol|
|  sn= 9 | S(rot)=       0.01404744 Eh      8.81 kcal/mol|
|  sn=10 | S(rot)=       0.01394796 Eh      8.75 kcal/mol|
|  sn=11 | S(rot)=       0.01385797 Eh      8.70 kcal/mol|
|  sn=12 | S(rot)=       0.01377582 Eh      8.64 kcal/mol|
 --------------------------------------------------------


-------------------
GIBBS FREE ENERGY
-------------------

The Gibbs free energy is G = H - T*S

Total enthalpy                    ...  -2660.91486674 Eh 
Total entropy correction          ...     -0.07809657 Eh    -49.01 kcal/mol
-----------------------------------------------------------------------
Final Gibbs free energy         ...  -2660.99296332 Eh

For completeness - the Gibbs free energy minus the electronic energy
G-E(el)                           ...      0.34553418 Eh    216.83 kcal/mol

--------------------------------------------------------------------------
WARNING: No preset parameters were found for the device that Open MPI
detected:

  Local host:            eu-g9-016-2
  Device name:           mlx5_0
  Device vendor ID:      0x02c9
  Device vendor part ID: 4123

Default device parameters will be used, which may result in lower
performance.  You can edit any of the files specified by the
btl_openib_device_param_files MCA parameter to set values for your
device.

NOTE: You can turn off this warning by setting the MCA parameter
      btl_openib_warn_no_device_params_found to 0.
--------------------------------------------------------------------------
--------------------------------------------------------------------------
WARNING: There is at least non-excluded one OpenFabrics device found,
but there are no active ports detected (or Open MPI was unable to use
them).  This is most certainly not what you wanted.  Check your
cables, subnet manager configuration, etc.  The openib BTL will be
ignored for this job.

  Local host: eu-g9-016-2
--------------------------------------------------------------------------

Timings for individual modules:

Sum of individual times         ...     5330.494 sec (=  88.842 min)
GTO integral calculation        ...       13.631 sec (=   0.227 min)   0.3 %
SCF iterations                  ...     1105.572 sec (=  18.426 min)  20.7 %
SCF Gradient evaluation         ...      404.906 sec (=   6.748 min)   7.6 %
Geometry relaxation             ...        4.618 sec (=   0.077 min)   0.1 %
Analytical frequency calculation...     3801.767 sec (=  63.363 min)  71.3 %
                             ****ORCA TERMINATED NORMALLY****
TOTAL RUN TIME: 0 days 1 hours 28 minutes 58 seconds 261 msec
