47
 energy: -65.386618598402 gnorm: 0.000367108402 xtb: 6.2.2 (655bc02); SMILES:O#C[Ni](C#O)([P](C(C)(C)C)(C(C)(C)C)C(C)(C)C)C#O
O           1.22236673600937   -0.09427027888924   -0.38998222166182
C           2.33156924684415   -0.14212044026818   -0.12467317175173
Ni          4.07697188873422   -0.43197058478292    0.20479087204291
C           5.02634446301169   -0.50453008958835   -1.32276870777047
O           5.53438356678889   -0.65049992393419   -2.33467470999158
P           4.89754138330444    1.45056416405965    1.47420465479491
C           4.32074090203658    1.35094810438997    3.30598936426804
C           5.11374320147744    0.24119291078464    4.00330270431514
C           4.44724294482799    2.63121137149897    4.13064456754837
C           2.85853029782133    0.88638244575487    3.31698065207559
C           6.82001819203275    1.50462567114237    1.46130173735277
C           7.28252342822371    1.94525101104775    0.06900136878883
C           7.48390221137177    2.40508905168506    2.50218489330195
C           7.33503852438814    0.06980769957608    1.63495651037245
C           4.25391357416358    3.10781196039013    0.74087743037715
C           2.76455917342664    3.23893360441772    1.07414450706040
C           4.96881462676877    4.37851920207155    1.19846591641555
C           4.32953528456957    3.01017972972839   -0.78837236911036
C           4.32290247106562   -1.90606086599713    1.20762471129193
O           4.43893488791282   -2.91596276066089    1.72707181810509
H           6.13135418094277    0.54266065298815    4.22978298179540
H           5.12805096477041   -0.65948589688195    3.39249956247390
H           4.63213274879784   -0.00723873402472    4.94878368872177
H           5.45797695489196    3.02574569290332    4.12327127891977
H           4.18725855432160    2.40215719432595    5.16451173236311
H           3.76528966505800    3.40454164067387    3.79065392529348
H           2.73030399057140    0.02593892355942    2.65820373083188
H           2.16547169530494    1.66133253932251    3.01226849273906
H           2.58333634285498    0.57931869715657    4.32532153685022
H           7.14621033519056    3.00973004114865   -0.09242511984085
H           6.75341801464942    1.38920440968921   -0.70254540877607
H           8.34604589161367    1.73499029552705   -0.04170702879744
H           7.12594948027979    3.42788909280725    2.44837487997358
H           8.55740324829683    2.41824625836274    2.31163487034917
H           7.34064136677851    2.03493658538830    3.51269277332010
H           6.80555938650817   -0.60606858059918    0.96155572772249
H           7.22898003874530   -0.29862889728944    2.64813233996379
H           8.39398460678087    0.03170650458049    1.38214371353385
H           2.59710027446701    3.51143924856700    2.11115603364840
H           2.24048299087549    2.31126393118619    0.85218422612651
H           2.32478136500137    4.02332092786207    0.45860177642938
H           4.97751507126099    4.47802000301795    2.27881183039448
H           4.43791322990458    5.23869114285960    0.78970444900419
H           5.98978469603426    4.42636351420276    0.83248719869239
H           3.89601722610253    2.06845554653358   -1.12879189622664
H           5.34157464390130    3.08204880543424   -1.16821305109221
H           3.75495603184133    3.82256848071830   -1.23201477355594
