

 Parallel Execution: Process Information
 ==============================================================================
 Rank   Node Name                              NodeID   MyNodeRank  NodeMaster
    0   eu-g5-042-3                               0          0          0
    1   eu-g5-042-3                               1          0          1
    2   eu-g5-042-3                               0          1         -1
    3   eu-g5-042-3                               2          0          2
    4   eu-g5-042-3                               0          2         -1
    5   eu-g5-042-3                               2          1         -1
    6   eu-g5-042-3                               0          3         -1
    7   eu-g5-042-3                               2          2         -1
    8   eu-g5-042-3                               0          4         -1
    9   eu-g5-042-3                               2          3         -1
   10   eu-g5-042-3                               0          5         -1
   11   eu-g5-042-3                               2          4         -1
   12   eu-g5-042-3                               3          0          3
   13   eu-g5-042-3                               2          5         -1
   14   eu-g5-042-3                               3          1         -1
   15   eu-g5-042-3                               3          2         -1
 ==============================================================================


May use up to 30549MB of RAM as shared memory on node 0
May use up to 29775MB of RAM as shared memory on node 2
May use up to 30759MB of RAM as shared memory on node 1
May use up to 30759MB of RAM as shared memory on node 3

 *******************************************************************************
 *                                                                             *
 *  --------------------------------                                           *
 *   Amsterdam Modeling Suite (AMS)              2023.101                      *
 *  --------------------------------                                           *
 *                                               r111868 2023-03-31            *
 *                                                                             *
 *                                                                             *
 *                              =================                              *
 *                              |               |                              *
 *                              |     A M S     |                              *
 *                              |               |                              *
 *                              =================                              *
 *                                                                             *
 *                                                                             *
 *   Online information and documentation:  https://www.scm.com/support/       *
 *   E-mail:  support@scm.com   info@scm.com                                   *
 *                                                                             *
 *   Scientific publications using AMS results must be properly referenced     *
 *   See the User Manuals (or the web site) for recommended citations          *
 *   The terms and conditions of the End User License Agreement apply to       *
 *   the use of AMS, https://www.scm.com/license-terms/                        *
 *                                                                             *
 ***********************  x86_64_linux_intel / openmpi  ************************
 
 Licensed to: D-CHAB / ETH site license / Zurich / Switzerland 2023-06-23 15:55:12
 SCM User ID: u7035
  
 AMS 2023.101  RunTime: May25-2024 09:09:20  ShM Nodes: 4  Procs: 16

 AMS jobname: gs_biphep
 AMS jobid  : 2004053752

 Start   directory: /cluster/scratch/sroediger/michael/eda/
 Results directory: /cluster/scratch/sroediger/michael/eda/gs_biphep.results/
 Scratch directory: /scratch/amstmp_gs_biphep_kid0.2004053752/


 Communication costs MPI_COMM_WORLD:      9.256 usec per message,   0.0183 usec per 8-byte item
 Communication costs for intra-node:      4.176 usec per message,   0.0256 usec per 8-byte item

 RNG seed: 1231855839 -1228938087 -832305305 -494495195 907093462 775156360 -1873375157 987047517



                     *************************************************************************
                     *  ADF 2023.101  RunTime: May25-2024 09:09:20  ShM Nodes: 4  Procs: 16  *
                     *************************************************************************
  

       ****************************
       * SINGLE POINT CALCULATION *
       ****************************
 
--------
Geometry
--------
Formula: C50H36ClF4NO3P2PdS
Atoms
  Index Symbol   x (angstrom)   y (angstrom)   z (angstrom)
      1      P     0.82993194     1.75177265     1.04176482       region=ligand adf.f=ligand
      2      C     1.34216849     0.88722551     2.56583911       region=ligand adf.f=ligand
      3      C     2.34488593     1.37713783     3.40732331       region=ligand adf.f=ligand
      4      C     2.62845256     0.72299324     4.60184300       region=ligand adf.f=ligand
      5      C     1.89698994    -0.40542483     4.97582473       region=ligand adf.f=ligand
      6      C     0.87568333    -0.87760017     4.15466321       region=ligand adf.f=ligand
      7      C     0.59866493    -0.23354644     2.95040612       region=ligand adf.f=ligand
      8      H    -0.20509603    -0.59060473     2.29857817       region=ligand adf.f=ligand
      9      H     0.29061863    -1.75179464     4.44939912       region=ligand adf.f=ligand
     10      H     2.12169313    -0.91362989     5.91648062       region=ligand adf.f=ligand
     11      H     3.42547219     1.09744525     5.24828230       region=ligand adf.f=ligand
     12      H     2.91096917     2.26756238     3.12319805       region=ligand adf.f=ligand
     13      C     2.24806952     2.36249159     0.06078445       region=ligand adf.f=ligand
     14      C     1.95698758     3.42640872    -0.80940001       region=ligand adf.f=ligand
     15      C     2.89673221     3.88572405    -1.72363838       region=ligand adf.f=ligand
     16      C     4.15248416     3.28412848    -1.78452124       region=ligand adf.f=ligand
     17      C     4.44085826     2.21219072    -0.95036785       region=ligand adf.f=ligand
     18      C     3.49630194     1.71737907    -0.03939976       region=ligand adf.f=ligand
     19      C     3.85838402     0.51434830     0.75297923       region=ligand adf.f=ligand
     20      C     4.95750715     0.59382465     1.61302933       region=ligand adf.f=ligand
     21      C     5.34579779    -0.49262161     2.39082961       region=ligand adf.f=ligand
     22      C     4.63543855    -1.68456510     2.30015737       region=ligand adf.f=ligand
     23      C     3.56357569    -1.79198673     1.41582675       region=ligand adf.f=ligand
     24      C     3.16145410    -0.70823638     0.62974256       region=ligand adf.f=ligand
     25      P     1.81686125    -0.86999690    -0.63813130       region=ligand adf.f=ligand
     26      C     1.46182532    -2.65508090    -0.65328089       region=ligand adf.f=ligand
     27      C     1.76521222    -3.46829978    -1.74682531       region=ligand adf.f=ligand
     28      C     1.47111294    -4.83028238    -1.70039087       region=ligand adf.f=ligand
     29      C     0.87773046    -5.38589298    -0.57006810       region=ligand adf.f=ligand
     30      C     0.54777273    -4.57179362     0.51326140       region=ligand adf.f=ligand
     31      C     0.82322570    -3.20931143     0.46596709       region=ligand adf.f=ligand
     32      H     0.54053173    -2.56857114     1.30499278       region=ligand adf.f=ligand
     33      H     0.04875353    -4.99654418     1.38739811       region=ligand adf.f=ligand
     34      H     0.64452534    -6.45260622    -0.54176129       region=ligand adf.f=ligand
     35      H     1.70040080    -5.45917728    -2.56353212       region=ligand adf.f=ligand
     36      H     2.21207155    -3.03326606    -2.64223060       region=ligand adf.f=ligand
     37      C     2.79391287    -0.49292948    -2.13162098       region=ligand adf.f=ligand
     38      C     2.28926407     0.40244903    -3.07471265       region=ligand adf.f=ligand
     39      C     3.06415725     0.76458070    -4.17463002       region=ligand adf.f=ligand
     40      C     4.34006891     0.23149758    -4.33836861       region=ligand adf.f=ligand
     41      C     4.84577003    -0.67126759    -3.40012448       region=ligand adf.f=ligand
     42      C     4.07802464    -1.03048141    -2.29691358       region=ligand adf.f=ligand
     43      H     4.48189436    -1.72170118    -1.55266736       region=ligand adf.f=ligand
     44      C    -1.18310372     3.05612819     2.41181401       region=ligand adf.f=ligand
     45      C    -1.77565380     4.10558120     3.10592298       region=ligand adf.f=ligand
     46      C    -1.12496330     5.33511043     3.20687199       region=ligand adf.f=ligand
     47      C     0.12816706     5.50706963     2.62283548       region=ligand adf.f=ligand
     48      C     0.72830023     4.45757161     1.92809031       region=ligand adf.f=ligand
     49      C     0.06867707     3.22999295     1.80611688       region=ligand adf.f=ligand
     50      H     1.71546881     4.60054445     1.48434663       region=ligand adf.f=ligand
     51      H     0.64797836     6.46417546     2.70880942       region=ligand adf.f=ligand
     52      H    -1.59530725     6.16077518     3.74610353       region=ligand adf.f=ligand
     53      H    -2.75715054     3.96193671     3.56267274       region=ligand adf.f=ligand
     54      H    -1.69989543     2.09751387     2.32870103       region=ligand adf.f=ligand
     55      H     5.84486937    -1.09480758    -3.52813928       region=ligand adf.f=ligand
     56      H     4.94604646     0.51580888    -5.20233851       region=ligand adf.f=ligand
     57      H     2.65855401     1.46535479    -4.90766977       region=ligand adf.f=ligand
     58      H     1.28580839     0.80833688    -2.95402240       region=ligand adf.f=ligand
     59      H     3.04479335    -2.74686425     1.32479850       region=ligand adf.f=ligand
     60      H     4.92210121    -2.54742730     2.90546492       region=ligand adf.f=ligand
     61      H     6.19787228    -0.40448554     3.06860573       region=ligand adf.f=ligand
     62      H     5.49692090     1.54157683     1.68563854       region=ligand adf.f=ligand
     63      H     5.40323175     1.70199119    -1.02785461       region=ligand adf.f=ligand
     64      H     4.89841357     3.63186736    -2.50218604       region=ligand adf.f=ligand
     65      H     2.64280351     4.70980938    -2.39373562       region=ligand adf.f=ligand
     66      H     0.97180790     3.89756791    -0.77489723       region=ligand adf.f=ligand
     67     Pd    -0.24466103     0.33493782    -0.34266360       region=pdsubstrate adf.f=pdsubstrate
     68     Cl    -1.01955320     1.82401163    -3.45166593       region=pdsubstrate adf.f=pdsubstrate
     69      S    -1.46656581    -1.12790584    -2.97491860       region=pdsubstrate adf.f=pdsubstrate
     70      F    -4.54894762    -1.13616223     2.21016110       region=pdsubstrate adf.f=pdsubstrate
     71      F    -4.52168285    -3.80820835     2.21427530       region=pdsubstrate adf.f=pdsubstrate
     72      F    -3.05531096    -5.17097681     0.37687244       region=pdsubstrate adf.f=pdsubstrate
     73      F    -1.58495739    -3.84313875    -1.43037374       region=pdsubstrate adf.f=pdsubstrate
     74      O    -0.13535827    -1.19621206    -3.56851188       region=pdsubstrate adf.f=pdsubstrate
     75      O    -2.51791069    -2.05843514    -3.38063228       region=pdsubstrate adf.f=pdsubstrate
     76      O    -5.79345802     3.03648274     0.16945880       region=pdsubstrate adf.f=pdsubstrate
     77      N    -1.33438194    -1.08637017    -1.36368961       region=pdsubstrate adf.f=pdsubstrate
     78      C    -2.04626121     1.21667932    -0.13132621       region=pdsubstrate adf.f=pdsubstrate
     79      C    -2.25592821     2.57295174    -0.41636669       region=pdsubstrate adf.f=pdsubstrate
     80      H    -1.41410450     3.20029417    -0.71660920       region=pdsubstrate adf.f=pdsubstrate
     81      C    -3.50855771     3.16208052    -0.32391584       region=pdsubstrate adf.f=pdsubstrate
     82      H    -3.65976034     4.22091175    -0.54263309       region=pdsubstrate adf.f=pdsubstrate
     83      C    -4.60775953     2.39356361     0.07678690       region=pdsubstrate adf.f=pdsubstrate
     84      C    -6.92142753     2.30599950     0.55730196       region=pdsubstrate adf.f=pdsubstrate
     85      H    -7.76162048     3.01187259     0.58306368       region=pdsubstrate adf.f=pdsubstrate
     86      H    -6.79910156     1.85899654     1.56019371       region=pdsubstrate adf.f=pdsubstrate
     87      H    -7.15744755     1.49867742    -0.15897749       region=pdsubstrate adf.f=pdsubstrate
     88      C    -4.43200916     1.03588604     0.33893208       region=pdsubstrate adf.f=pdsubstrate
     89      H    -5.28248212     0.41443143     0.61239249       region=pdsubstrate adf.f=pdsubstrate
     90      C    -3.16109274     0.43799986     0.22228949       region=pdsubstrate adf.f=pdsubstrate
     91      C    -3.06219599    -1.03305929     0.35823621       region=pdsubstrate adf.f=pdsubstrate
     92      C    -3.80884576    -1.75695220     1.28946924       region=pdsubstrate adf.f=pdsubstrate
     93      C    -3.81705698    -3.14908861     1.30409100       region=pdsubstrate adf.f=pdsubstrate
     94      C    -3.07105521    -3.84624993     0.35919180       region=pdsubstrate adf.f=pdsubstrate
     95      C    -2.30536484    -3.14969405    -0.56966397       region=pdsubstrate adf.f=pdsubstrate
     96      C    -2.25208593    -1.75106853    -0.55658145       region=pdsubstrate adf.f=pdsubstrate
     97      C    -2.16344934     0.47788672    -3.47538113       region=pdsubstrate adf.f=pdsubstrate
     98      H    -2.50755646     0.32445772    -4.50627013       region=pdsubstrate adf.f=pdsubstrate
     99      H    -3.00290513     0.70354189    -2.80454342       region=pdsubstrate adf.f=pdsubstrate
 
Total System Charge             0.00000
Bonding info available!
 
 
----------------
ADF Engine Input
----------------
 
 Basis
 Type TZP
 Core None
 End
 Fragments
 ligand ./gs_biphep.ligand.results/adf.rkf
 pdsubstrate ./gs_biphep.pdsubstrate.results/adf.rkf
 End
 XC
 Hybrid PBE0
 DISPERSION Grimme3 BJDAMP
 End
 NumericalQuality VeryGood
 

 Title: *** (NO TITLE) ***

 *** adf ***



 ===========================
 A T T A C H E D   F I L E S
 ===========================
  



 ===============================
 M O D E L   P A R A M E T E R S
 ===============================
  
 DENSITY FUNCTIONAL POTENTIAL (scf)
    Hybrid:                            PBE0                                    == Not Default ==

 SPIN  (restricted / unrestr.)
    Molecule:                          Restricted                               
    Fragments:                         Restricted                               

 OTHER ASPECTS
    Relativistic Corrections:          scalar (ZORA,MAPA)                       

    Nuclear Charge Density Model:      Point Charge Nuclei                      
    Core Treatment:                    Frozen Orbital(s)                        

    Hyperfine or Zeeman Interaction:   ---                                      

 Settings for Grimme D3 dispersion correction

      damping                        BJ
      s6                          1.000
      s8                          1.218
      a1                          0.414
      a2                          4.859

 Other (technical) parameters

      alpha                      14.000
      version                         4
 


 Fragment File(s)
 ----------------
 ligand:
         file : ./gs_biphep.ligand.results/adf.rkf
         jobid: 2065405005
         title: *** adf ***
 pdsubstrate:
         file : ./gs_biphep.pdsubstrate.results/adf.rkf
         jobid: 2053395826
         title: *** adf ***



 ===============
 G E O M E T R Y  ***  3D  Molecule  ***
 ===============
  

 ATOMS
 =====                            X Y Z                    CHARGE
                                (Angstrom)             Nucl     +Core       At.Mass
                       --------------------------    ----------------       -------
    1  P               0.8299    1.7518    1.0418     15.00     15.00       30.9738
    2  C               1.3422    0.8872    2.5658      6.00      6.00       12.0000
    3  C               2.3449    1.3771    3.4073      6.00      6.00       12.0000
    4  C               2.6285    0.7230    4.6018      6.00      6.00       12.0000
    5  C               1.8970   -0.4054    4.9758      6.00      6.00       12.0000
    6  C               0.8757   -0.8776    4.1547      6.00      6.00       12.0000
    7  C               0.5987   -0.2335    2.9504      6.00      6.00       12.0000
    8  H              -0.2051   -0.5906    2.2986      1.00      1.00        1.0078
    9  H               0.2906   -1.7518    4.4494      1.00      1.00        1.0078
   10  H               2.1217   -0.9136    5.9165      1.00      1.00        1.0078
   11  H               3.4255    1.0974    5.2483      1.00      1.00        1.0078
   12  H               2.9110    2.2676    3.1232      1.00      1.00        1.0078
   13  C               2.2481    2.3625    0.0608      6.00      6.00       12.0000
   14  C               1.9570    3.4264   -0.8094      6.00      6.00       12.0000
   15  C               2.8967    3.8857   -1.7236      6.00      6.00       12.0000
   16  C               4.1525    3.2841   -1.7845      6.00      6.00       12.0000
   17  C               4.4409    2.2122   -0.9504      6.00      6.00       12.0000
   18  C               3.4963    1.7174   -0.0394      6.00      6.00       12.0000
   19  C               3.8584    0.5143    0.7530      6.00      6.00       12.0000
   20  C               4.9575    0.5938    1.6130      6.00      6.00       12.0000
   21  C               5.3458   -0.4926    2.3908      6.00      6.00       12.0000
   22  C               4.6354   -1.6846    2.3002      6.00      6.00       12.0000
   23  C               3.5636   -1.7920    1.4158      6.00      6.00       12.0000
   24  C               3.1615   -0.7082    0.6297      6.00      6.00       12.0000
   25  P               1.8169   -0.8700   -0.6381     15.00     15.00       30.9738
   26  C               1.4618   -2.6551   -0.6533      6.00      6.00       12.0000
   27  C               1.7652   -3.4683   -1.7468      6.00      6.00       12.0000
   28  C               1.4711   -4.8303   -1.7004      6.00      6.00       12.0000
   29  C               0.8777   -5.3859   -0.5701      6.00      6.00       12.0000
   30  C               0.5478   -4.5718    0.5133      6.00      6.00       12.0000
   31  C               0.8232   -3.2093    0.4660      6.00      6.00       12.0000
   32  H               0.5405   -2.5686    1.3050      1.00      1.00        1.0078
   33  H               0.0488   -4.9965    1.3874      1.00      1.00        1.0078
   34  H               0.6445   -6.4526   -0.5418      1.00      1.00        1.0078
   35  H               1.7004   -5.4592   -2.5635      1.00      1.00        1.0078
   36  H               2.2121   -3.0333   -2.6422      1.00      1.00        1.0078
   37  C               2.7939   -0.4929   -2.1316      6.00      6.00       12.0000
   38  C               2.2893    0.4024   -3.0747      6.00      6.00       12.0000
   39  C               3.0642    0.7646   -4.1746      6.00      6.00       12.0000
   40  C               4.3401    0.2315   -4.3384      6.00      6.00       12.0000
   41  C               4.8458   -0.6713   -3.4001      6.00      6.00       12.0000
   42  C               4.0780   -1.0305   -2.2969      6.00      6.00       12.0000
   43  H               4.4819   -1.7217   -1.5527      1.00      1.00        1.0078
   44  C              -1.1831    3.0561    2.4118      6.00      6.00       12.0000
   45  C              -1.7757    4.1056    3.1059      6.00      6.00       12.0000
   46  C              -1.1250    5.3351    3.2069      6.00      6.00       12.0000
   47  C               0.1282    5.5071    2.6228      6.00      6.00       12.0000
   48  C               0.7283    4.4576    1.9281      6.00      6.00       12.0000
   49  C               0.0687    3.2300    1.8061      6.00      6.00       12.0000
   50  H               1.7155    4.6005    1.4843      1.00      1.00        1.0078
   51  H               0.6480    6.4642    2.7088      1.00      1.00        1.0078
   52  H              -1.5953    6.1608    3.7461      1.00      1.00        1.0078
   53  H              -2.7572    3.9619    3.5627      1.00      1.00        1.0078
   54  H              -1.6999    2.0975    2.3287      1.00      1.00        1.0078
   55  H               5.8449   -1.0948   -3.5281      1.00      1.00        1.0078
   56  H               4.9460    0.5158   -5.2023      1.00      1.00        1.0078
   57  H               2.6586    1.4654   -4.9077      1.00      1.00        1.0078
   58  H               1.2858    0.8083   -2.9540      1.00      1.00        1.0078
   59  H               3.0448   -2.7469    1.3248      1.00      1.00        1.0078
   60  H               4.9221   -2.5474    2.9055      1.00      1.00        1.0078
   61  H               6.1979   -0.4045    3.0686      1.00      1.00        1.0078
   62  H               5.4969    1.5416    1.6856      1.00      1.00        1.0078
   63  H               5.4032    1.7020   -1.0279      1.00      1.00        1.0078
   64  H               4.8984    3.6319   -2.5022      1.00      1.00        1.0078
   65  H               2.6428    4.7098   -2.3937      1.00      1.00        1.0078
   66  H               0.9718    3.8976   -0.7749      1.00      1.00        1.0078
   67  Pd             -0.2447    0.3349   -0.3427     46.00     46.00      105.9035
   68  Cl             -1.0196    1.8240   -3.4517     17.00     17.00       34.9689
   69  S              -1.4666   -1.1279   -2.9749     16.00     16.00       31.9721
   70  F              -4.5489   -1.1362    2.2102      9.00      9.00       18.9984
   71  F              -4.5217   -3.8082    2.2143      9.00      9.00       18.9984
   72  F              -3.0553   -5.1710    0.3769      9.00      9.00       18.9984
   73  F              -1.5850   -3.8431   -1.4304      9.00      9.00       18.9984
   74  O              -0.1354   -1.1962   -3.5685      8.00      8.00       15.9949
   75  O              -2.5179   -2.0584   -3.3806      8.00      8.00       15.9949
   76  O              -5.7935    3.0365    0.1695      8.00      8.00       15.9949
   77  N              -1.3344   -1.0864   -1.3637      7.00      7.00       14.0031
   78  C              -2.0463    1.2167   -0.1313      6.00      6.00       12.0000
   79  C              -2.2559    2.5730   -0.4164      6.00      6.00       12.0000
   80  H              -1.4141    3.2003   -0.7166      1.00      1.00        1.0078
   81  C              -3.5086    3.1621   -0.3239      6.00      6.00       12.0000
   82  H              -3.6598    4.2209   -0.5426      1.00      1.00        1.0078
   83  C              -4.6078    2.3936    0.0768      6.00      6.00       12.0000
   84  C              -6.9214    2.3060    0.5573      6.00      6.00       12.0000
   85  H              -7.7616    3.0119    0.5831      1.00      1.00        1.0078
   86  H              -6.7991    1.8590    1.5602      1.00      1.00        1.0078
   87  H              -7.1574    1.4987   -0.1590      1.00      1.00        1.0078
   88  C              -4.4320    1.0359    0.3389      6.00      6.00       12.0000
   89  H              -5.2825    0.4144    0.6124      1.00      1.00        1.0078
   90  C              -3.1611    0.4380    0.2223      6.00      6.00       12.0000
   91  C              -3.0622   -1.0331    0.3582      6.00      6.00       12.0000
   92  C              -3.8088   -1.7570    1.2895      6.00      6.00       12.0000
   93  C              -3.8171   -3.1491    1.3041      6.00      6.00       12.0000
   94  C              -3.0711   -3.8462    0.3592      6.00      6.00       12.0000
   95  C              -2.3054   -3.1497   -0.5697      6.00      6.00       12.0000
   96  C              -2.2521   -1.7511   -0.5566      6.00      6.00       12.0000
   97  C              -2.1634    0.4779   -3.4754      6.00      6.00       12.0000
   98  H              -2.5076    0.3245   -4.5063      1.00      1.00        1.0078
   99  H              -3.0029    0.7035   -2.8045      1.00      1.00        1.0078


 FRAGMENTS
 =========                                     Atoms in this Fragment     Cart. coord.s (Angstrom)
                                               -------------------------------------------------------
    1  ligand                                            1  P            0.8299    1.7518    1.0418
                                                        25  P            1.8169   -0.8700   -0.6381
                                                         2  C            1.3422    0.8872    2.5658
                                                         3  C            2.3449    1.3771    3.4073
                                                         4  C            2.6285    0.7230    4.6018
                                                         5  C            1.8970   -0.4054    4.9758
                                                         6  C            0.8757   -0.8776    4.1547
                                                         7  C            0.5987   -0.2335    2.9504
                                                        13  C            2.2481    2.3625    0.0608
                                                        14  C            1.9570    3.4264   -0.8094
                                                        15  C            2.8967    3.8857   -1.7236
                                                        16  C            4.1525    3.2841   -1.7845
                                                        17  C            4.4409    2.2122   -0.9504
                                                        18  C            3.4963    1.7174   -0.0394
                                                        19  C            3.8584    0.5143    0.7530
                                                        20  C            4.9575    0.5938    1.6130
                                                        21  C            5.3458   -0.4926    2.3908
                                                        22  C            4.6354   -1.6846    2.3002
                                                        23  C            3.5636   -1.7920    1.4158
                                                        24  C            3.1615   -0.7082    0.6297
                                                        26  C            1.4618   -2.6551   -0.6533
                                                        27  C            1.7652   -3.4683   -1.7468
                                                        28  C            1.4711   -4.8303   -1.7004
                                                        29  C            0.8777   -5.3859   -0.5701
                                                        30  C            0.5478   -4.5718    0.5133
                                                        31  C            0.8232   -3.2093    0.4660
                                                        37  C            2.7939   -0.4929   -2.1316
                                                        38  C            2.2893    0.4024   -3.0747
                                                        39  C            3.0642    0.7646   -4.1746
                                                        40  C            4.3401    0.2315   -4.3384
                                                        41  C            4.8458   -0.6713   -3.4001
                                                        42  C            4.0780   -1.0305   -2.2969
                                                        44  C           -1.1831    3.0561    2.4118
                                                        45  C           -1.7757    4.1056    3.1059
                                                        46  C           -1.1250    5.3351    3.2069
                                                        47  C            0.1282    5.5071    2.6228
                                                        48  C            0.7283    4.4576    1.9281
                                                        49  C            0.0687    3.2300    1.8061
                                                         8  H           -0.2051   -0.5906    2.2986
                                                         9  H            0.2906   -1.7518    4.4494
                                                        10  H            2.1217   -0.9136    5.9165
                                                        11  H            3.4255    1.0974    5.2483
                                                        12  H            2.9110    2.2676    3.1232
                                                        32  H            0.5405   -2.5686    1.3050
                                                        33  H            0.0488   -4.9965    1.3874
                                                        34  H            0.6445   -6.4526   -0.5418
                                                        35  H            1.7004   -5.4592   -2.5635
                                                        36  H            2.2121   -3.0333   -2.6422
                                                        43  H            4.4819   -1.7217   -1.5527
                                                        50  H            1.7155    4.6005    1.4843
                                                        51  H            0.6480    6.4642    2.7088
                                                        52  H           -1.5953    6.1608    3.7461
                                                        53  H           -2.7572    3.9619    3.5627
                                                        54  H           -1.6999    2.0975    2.3287
                                                        55  H            5.8449   -1.0948   -3.5281
                                                        56  H            4.9460    0.5158   -5.2023
                                                        57  H            2.6586    1.4654   -4.9077
                                                        58  H            1.2858    0.8083   -2.9540
                                                        59  H            3.0448   -2.7469    1.3248
                                                        60  H            4.9221   -2.5474    2.9055
                                                        61  H            6.1979   -0.4045    3.0686
                                                        62  H            5.4969    1.5416    1.6856
                                                        63  H            5.4032    1.7020   -1.0279
                                                        64  H            4.8984    3.6319   -2.5022
                                                        65  H            2.6428    4.7098   -2.3937
                                                        66  H            0.9718    3.8976   -0.7749
    2  pdsubstrate                                      67  Pd          -0.2447    0.3349   -0.3427
                                                        68  Cl          -1.0196    1.8240   -3.4517
                                                        69  S           -1.4666   -1.1279   -2.9749
                                                        70  F           -4.5489   -1.1362    2.2102
                                                        71  F           -4.5217   -3.8082    2.2143
                                                        72  F           -3.0553   -5.1710    0.3769
                                                        73  F           -1.5850   -3.8431   -1.4304
                                                        74  O           -0.1354   -1.1962   -3.5685
                                                        75  O           -2.5179   -2.0584   -3.3806
                                                        76  O           -5.7935    3.0365    0.1695
                                                        77  N           -1.3344   -1.0864   -1.3637
                                                        78  C           -2.0463    1.2167   -0.1313
                                                        79  C           -2.2559    2.5730   -0.4164
                                                        81  C           -3.5086    3.1621   -0.3239
                                                        83  C           -4.6078    2.3936    0.0768
                                                        84  C           -6.9214    2.3060    0.5573
                                                        88  C           -4.4320    1.0359    0.3389
                                                        90  C           -3.1611    0.4380    0.2223
                                                        91  C           -3.0622   -1.0331    0.3582
                                                        92  C           -3.8088   -1.7570    1.2895
                                                        93  C           -3.8171   -3.1491    1.3041
                                                        94  C           -3.0711   -3.8462    0.3592
                                                        95  C           -2.3054   -3.1497   -0.5697
                                                        96  C           -2.2521   -1.7511   -0.5566
                                                        97  C           -2.1634    0.4779   -3.4754
                                                        80  H           -1.4141    3.2003   -0.7166
                                                        82  H           -3.6598    4.2209   -0.5426
                                                        85  H           -7.7616    3.0119    0.5831
                                                        86  H           -6.7991    1.8590    1.5602
                                                        87  H           -7.1574    1.4987   -0.1590
                                                        89  H           -5.2825    0.4144    0.6124
                                                        98  H           -2.5076    0.3245   -4.5063
                                                        99  H           -3.0029    0.7035   -2.8045



 =====================================
 S Y M M E T R Y ,   E L E C T R O N S
 =====================================
  
 Symmetry: NOSYM

 Irreducible Representations, including subspecies
 -------------------------------------------------
 A


 Configuration of Valence Electrons
 ==================================
 ( determined in the SCF procedure )

 Total:   512

 Net Charge: 0 (Nuclei minus Electrons)

 Aufbau principle for MO occupations will be applied through SCF cycle no.     150
 Thereafter, the program will assign electrons to MOs that are spatially
 similar to the occupied MOs in a "reference" cycle ("KeepOrbitals").
 The reference cycle is always the PREVIOUS cycle: it will evolve with
 the SCF procedure.
1
 ***************************************************************************************************



                                      ****************************************
                                      *  B U I L D : (Fragments, Functions)  *
                                      ****************************************
  

 The individual fragments are copies of the corresponding 'Master' fragments defined on the fragment files.
 However, they may have been rotated (and translated) with respect to the Master. The local coordinate axes
 of each fragment (which define for instance the spatial orientation in the current molecule of a fragment
 P:x orbital) are not necessarily those of the molecule.
 The local frame (if different from the molecular one) is printed to enable an interpretation of the expan-
 sion of an MO in Fragment Orbitals.



                                            ****************************
                                            *  Fragment Type : ligand  *
                                            ****************************
  

 Fragment no.    1   (in the list of all fragments)
 -----------------
 The local coordinate frame is identical to the molecular frame.

 Check Atomic Coordinates:

                  Master (on file)          After Computed Tranformation               As specified on Input
           ----------------------------     ----------------------------     ---------------------------------
     1)     0.82993   1.75177   1.04176      0.82993   1.75177   1.04176       1   0.82993   1.75177   1.04176
     2)     1.81686  -0.87000  -0.63813      1.81686  -0.87000  -0.63813      25   1.81686  -0.87000  -0.63813
     3)     1.34217   0.88723   2.56584      1.34217   0.88723   2.56584       2   1.34217   0.88723   2.56584
     4)     2.34489   1.37714   3.40732      2.34489   1.37714   3.40732       3   2.34489   1.37714   3.40732
     5)     2.62845   0.72299   4.60184      2.62845   0.72299   4.60184       4   2.62845   0.72299   4.60184
     6)     1.89699  -0.40542   4.97582      1.89699  -0.40542   4.97582       5   1.89699  -0.40542   4.97582
     7)     0.87568  -0.87760   4.15466      0.87568  -0.87760   4.15466       6   0.87568  -0.87760   4.15466
     8)     0.59866  -0.23355   2.95041      0.59866  -0.23355   2.95041       7   0.59866  -0.23355   2.95041
     9)     2.24807   2.36249   0.06078      2.24807   2.36249   0.06078      13   2.24807   2.36249   0.06078
    10)     1.95699   3.42641  -0.80940      1.95699   3.42641  -0.80940      14   1.95699   3.42641  -0.80940
    11)     2.89673   3.88572  -1.72364      2.89673   3.88572  -1.72364      15   2.89673   3.88572  -1.72364
    12)     4.15248   3.28413  -1.78452      4.15248   3.28413  -1.78452      16   4.15248   3.28413  -1.78452
    13)     4.44086   2.21219  -0.95037      4.44086   2.21219  -0.95037      17   4.44086   2.21219  -0.95037
    14)     3.49630   1.71738  -0.03940      3.49630   1.71738  -0.03940      18   3.49630   1.71738  -0.03940
    15)     3.85838   0.51435   0.75298      3.85838   0.51435   0.75298      19   3.85838   0.51435   0.75298
    16)     4.95751   0.59382   1.61303      4.95751   0.59382   1.61303      20   4.95751   0.59382   1.61303
    17)     5.34580  -0.49262   2.39083      5.34580  -0.49262   2.39083      21   5.34580  -0.49262   2.39083
    18)     4.63544  -1.68457   2.30016      4.63544  -1.68457   2.30016      22   4.63544  -1.68457   2.30016
    19)     3.56358  -1.79199   1.41583      3.56358  -1.79199   1.41583      23   3.56358  -1.79199   1.41583
    20)     3.16145  -0.70824   0.62974      3.16145  -0.70824   0.62974      24   3.16145  -0.70824   0.62974
    21)     1.46183  -2.65508  -0.65328      1.46183  -2.65508  -0.65328      26   1.46183  -2.65508  -0.65328
    22)     1.76521  -3.46830  -1.74683      1.76521  -3.46830  -1.74683      27   1.76521  -3.46830  -1.74683
    23)     1.47111  -4.83028  -1.70039      1.47111  -4.83028  -1.70039      28   1.47111  -4.83028  -1.70039
    24)     0.87773  -5.38589  -0.57007      0.87773  -5.38589  -0.57007      29   0.87773  -5.38589  -0.57007
    25)     0.54777  -4.57179   0.51326      0.54777  -4.57179   0.51326      30   0.54777  -4.57179   0.51326
    26)     0.82323  -3.20931   0.46597      0.82323  -3.20931   0.46597      31   0.82323  -3.20931   0.46597
    27)     2.79391  -0.49293  -2.13162      2.79391  -0.49293  -2.13162      37   2.79391  -0.49293  -2.13162
    28)     2.28926   0.40245  -3.07471      2.28926   0.40245  -3.07471      38   2.28926   0.40245  -3.07471
    29)     3.06416   0.76458  -4.17463      3.06416   0.76458  -4.17463      39   3.06416   0.76458  -4.17463
    30)     4.34007   0.23150  -4.33837      4.34007   0.23150  -4.33837      40   4.34007   0.23150  -4.33837
    31)     4.84577  -0.67127  -3.40012      4.84577  -0.67127  -3.40012      41   4.84577  -0.67127  -3.40012
    32)     4.07802  -1.03048  -2.29691      4.07802  -1.03048  -2.29691      42   4.07802  -1.03048  -2.29691
    33)    -1.18310   3.05613   2.41181     -1.18310   3.05613   2.41181      44  -1.18310   3.05613   2.41181
    34)    -1.77565   4.10558   3.10592     -1.77565   4.10558   3.10592      45  -1.77565   4.10558   3.10592
    35)    -1.12496   5.33511   3.20687     -1.12496   5.33511   3.20687      46  -1.12496   5.33511   3.20687
    36)     0.12817   5.50707   2.62284      0.12817   5.50707   2.62284      47   0.12817   5.50707   2.62284
    37)     0.72830   4.45757   1.92809      0.72830   4.45757   1.92809      48   0.72830   4.45757   1.92809
    38)     0.06868   3.22999   1.80612      0.06868   3.22999   1.80612      49   0.06868   3.22999   1.80612
    39)    -0.20510  -0.59060   2.29858     -0.20510  -0.59060   2.29858       8  -0.20510  -0.59060   2.29858
    40)     0.29062  -1.75179   4.44940      0.29062  -1.75179   4.44940       9   0.29062  -1.75179   4.44940
    41)     2.12169  -0.91363   5.91648      2.12169  -0.91363   5.91648      10   2.12169  -0.91363   5.91648
    42)     3.42547   1.09745   5.24828      3.42547   1.09745   5.24828      11   3.42547   1.09745   5.24828
    43)     2.91097   2.26756   3.12320      2.91097   2.26756   3.12320      12   2.91097   2.26756   3.12320
    44)     0.54053  -2.56857   1.30499      0.54053  -2.56857   1.30499      32   0.54053  -2.56857   1.30499
    45)     0.04875  -4.99654   1.38740      0.04875  -4.99654   1.38740      33   0.04875  -4.99654   1.38740
    46)     0.64453  -6.45261  -0.54176      0.64453  -6.45261  -0.54176      34   0.64453  -6.45261  -0.54176
    47)     1.70040  -5.45918  -2.56353      1.70040  -5.45918  -2.56353      35   1.70040  -5.45918  -2.56353
    48)     2.21207  -3.03327  -2.64223      2.21207  -3.03327  -2.64223      36   2.21207  -3.03327  -2.64223
    49)     4.48189  -1.72170  -1.55267      4.48189  -1.72170  -1.55267      43   4.48189  -1.72170  -1.55267
    50)     1.71547   4.60054   1.48435      1.71547   4.60054   1.48435      50   1.71547   4.60054   1.48435
    51)     0.64798   6.46418   2.70881      0.64798   6.46418   2.70881      51   0.64798   6.46418   2.70881
    52)    -1.59531   6.16078   3.74610     -1.59531   6.16078   3.74610      52  -1.59531   6.16078   3.74610
    53)    -2.75715   3.96194   3.56267     -2.75715   3.96194   3.56267      53  -2.75715   3.96194   3.56267
    54)    -1.69990   2.09751   2.32870     -1.69990   2.09751   2.32870      54  -1.69990   2.09751   2.32870
    55)     5.84487  -1.09481  -3.52814      5.84487  -1.09481  -3.52814      55   5.84487  -1.09481  -3.52814
    56)     4.94605   0.51581  -5.20234      4.94605   0.51581  -5.20234      56   4.94605   0.51581  -5.20234
    57)     2.65855   1.46535  -4.90767      2.65855   1.46535  -4.90767      57   2.65855   1.46535  -4.90767
    58)     1.28581   0.80834  -2.95402      1.28581   0.80834  -2.95402      58   1.28581   0.80834  -2.95402
    59)     3.04479  -2.74686   1.32480      3.04479  -2.74686   1.32480      59   3.04479  -2.74686   1.32480
    60)     4.92210  -2.54743   2.90546      4.92210  -2.54743   2.90546      60   4.92210  -2.54743   2.90546
    61)     6.19787  -0.40449   3.06861      6.19787  -0.40449   3.06861      61   6.19787  -0.40449   3.06861
    62)     5.49692   1.54158   1.68564      5.49692   1.54158   1.68564      62   5.49692   1.54158   1.68564
    63)     5.40323   1.70199  -1.02785      5.40323   1.70199  -1.02785      63   5.40323   1.70199  -1.02785
    64)     4.89841   3.63187  -2.50219      4.89841   3.63187  -2.50219      64   4.89841   3.63187  -2.50219
    65)     2.64280   4.70981  -2.39374      2.64280   4.70981  -2.39374      65   2.64280   4.70981  -2.39374
    66)     0.97181   3.89757  -0.77490      0.97181   3.89757  -0.77490      66   0.97181   3.89757  -0.77490



                                         *********************************
                                         *  Fragment Type : pdsubstrate  *
                                         *********************************
  

 Fragment no.    2   (in the list of all fragments)
 -----------------
 The local coordinate frame is identical to the molecular frame.

 Check Atomic Coordinates:

                  Master (on file)          After Computed Tranformation               As specified on Input
           ----------------------------     ----------------------------     ---------------------------------
     1)    -0.24466   0.33494  -0.34266     -0.24466   0.33494  -0.34266      67  -0.24466   0.33494  -0.34266
     2)    -1.01955   1.82401  -3.45167     -1.01955   1.82401  -3.45167      68  -1.01955   1.82401  -3.45167
     3)    -1.46657  -1.12791  -2.97492     -1.46657  -1.12791  -2.97492      69  -1.46657  -1.12791  -2.97492
     4)    -4.54895  -1.13616   2.21016     -4.54895  -1.13616   2.21016      70  -4.54895  -1.13616   2.21016
     5)    -4.52168  -3.80821   2.21428     -4.52168  -3.80821   2.21428      71  -4.52168  -3.80821   2.21428
     6)    -3.05531  -5.17098   0.37687     -3.05531  -5.17098   0.37687      72  -3.05531  -5.17098   0.37687
     7)    -1.58496  -3.84314  -1.43037     -1.58496  -3.84314  -1.43037      73  -1.58496  -3.84314  -1.43037
     8)    -0.13536  -1.19621  -3.56851     -0.13536  -1.19621  -3.56851      74  -0.13536  -1.19621  -3.56851
     9)    -2.51791  -2.05844  -3.38063     -2.51791  -2.05844  -3.38063      75  -2.51791  -2.05844  -3.38063
    10)    -5.79346   3.03648   0.16946     -5.79346   3.03648   0.16946      76  -5.79346   3.03648   0.16946
    11)    -1.33438  -1.08637  -1.36369     -1.33438  -1.08637  -1.36369      77  -1.33438  -1.08637  -1.36369
    12)    -2.04626   1.21668  -0.13133     -2.04626   1.21668  -0.13133      78  -2.04626   1.21668  -0.13133
    13)    -2.25593   2.57295  -0.41637     -2.25593   2.57295  -0.41637      79  -2.25593   2.57295  -0.41637
    14)    -3.50856   3.16208  -0.32392     -3.50856   3.16208  -0.32392      81  -3.50856   3.16208  -0.32392
    15)    -4.60776   2.39356   0.07679     -4.60776   2.39356   0.07679      83  -4.60776   2.39356   0.07679
    16)    -6.92143   2.30600   0.55730     -6.92143   2.30600   0.55730      84  -6.92143   2.30600   0.55730
    17)    -4.43201   1.03589   0.33893     -4.43201   1.03589   0.33893      88  -4.43201   1.03589   0.33893
    18)    -3.16109   0.43800   0.22229     -3.16109   0.43800   0.22229      90  -3.16109   0.43800   0.22229
    19)    -3.06220  -1.03306   0.35824     -3.06220  -1.03306   0.35824      91  -3.06220  -1.03306   0.35824
    20)    -3.80885  -1.75695   1.28947     -3.80885  -1.75695   1.28947      92  -3.80885  -1.75695   1.28947
    21)    -3.81706  -3.14909   1.30409     -3.81706  -3.14909   1.30409      93  -3.81706  -3.14909   1.30409
    22)    -3.07106  -3.84625   0.35919     -3.07106  -3.84625   0.35919      94  -3.07106  -3.84625   0.35919
    23)    -2.30536  -3.14969  -0.56966     -2.30536  -3.14969  -0.56966      95  -2.30536  -3.14969  -0.56966
    24)    -2.25209  -1.75107  -0.55658     -2.25209  -1.75107  -0.55658      96  -2.25209  -1.75107  -0.55658
    25)    -2.16345   0.47789  -3.47538     -2.16345   0.47789  -3.47538      97  -2.16345   0.47789  -3.47538
    26)    -1.41410   3.20029  -0.71661     -1.41410   3.20029  -0.71661      80  -1.41410   3.20029  -0.71661
    27)    -3.65976   4.22091  -0.54263     -3.65976   4.22091  -0.54263      82  -3.65976   4.22091  -0.54263
    28)    -7.76162   3.01187   0.58306     -7.76162   3.01187   0.58306      85  -7.76162   3.01187   0.58306
    29)    -6.79910   1.85900   1.56019     -6.79910   1.85900   1.56019      86  -6.79910   1.85900   1.56019
    30)    -7.15745   1.49868  -0.15898     -7.15745   1.49868  -0.15898      87  -7.15745   1.49868  -0.15898
    31)    -5.28248   0.41443   0.61239     -5.28248   0.41443   0.61239      89  -5.28248   0.41443   0.61239
    32)    -2.50756   0.32446  -4.50627     -2.50756   0.32446  -4.50627      98  -2.50756   0.32446  -4.50627
    33)    -3.00291   0.70354  -2.80454     -3.00291   0.70354  -2.80454      99  -3.00291   0.70354  -2.80454

 Total nr. of (C)SFOs (summation over all irreps) :  1492

 Specify PRINT SFO in the input file to get a full list

 Nr. of SFOs for ir.rep.           A :  1492



 ================================
 (Slater-type)  F U N C T I O N S  ***  (Basis and Fit)  ***
 ================================
  

 Atom Type    1  (P)
 ==============

 Valence Basis Sets:  13
 -----------------------
   1 S   18.000000
   1 S   13.350000
   2 S    5.600000
   2 S    4.050000
   2 P    7.450000
   2 P    4.100000
   3 S    2.700000
   3 S    1.850000
   3 S    1.300000
   3 P    2.300000
   3 P    1.350000
   3 P    0.850000
   3 D    1.900000

 Charge Fitting Sets (for the computation of the Coulomb Potential):  30
 -----------------------------------------------------------------------
   1 S   36.000000
   1 S   21.450000
   2 S   23.670000
   2 S   15.860000
   3 S   15.600000
   3 S   11.130000
   3 S    7.940000
   4 S    7.490000
   4 S    5.560000
   4 S    4.130000
   5 S    3.810000
   5 S    2.910000
   5 S    2.230000
   5 S    1.700000
   2 P   25.450000
   3 P   18.490000
   4 P   13.440000
   4 P    7.810000
   5 P    5.730000
   5 P    3.510000
   5 P    2.150000
   3 D   19.350000
   4 D   13.230000
   4 D    7.250000
   5 D    5.040000
   5 D    2.930000
   5 D    1.700000
   4 F    5.000000
   4 F    3.000000
   5 G    3.750000

 Atom Type    2  (C)
 ==============

 Valence Basis Sets:   9
 -----------------------
   1 S    7.680000
   1 S    5.000000
   2 S    1.280000
   2 S    2.100000
   2 S    4.600000
   2 P    0.820000
   2 P    1.480000
   2 P    2.940000
   3 D    2.200000

 Charge Fitting Sets (for the computation of the Coulomb Potential):  22
 -----------------------------------------------------------------------
   1 S   15.360000
   2 S   17.530000
   2 S   12.070000
   2 S    8.310000
   2 S    5.730000
   3 S    5.780000
   3 S    4.220000
   3 S    3.080000
   3 S    2.250000
   3 S    1.640000
   2 P    9.880000
   2 P    5.800000
   3 P    5.050000
   3 P    3.230000
   3 P    2.060000
   3 D    7.200000
   3 D    4.400000
   3 D    2.690000
   3 D    1.640000
   4 F    5.400000
   4 F    3.550000
   5 G    4.500000

 Atom Type    3  (H)
 ==============

 Valence Basis Sets:   4
 -----------------------
   1 S    0.690000
   1 S    0.920000
   1 S    1.580000
   2 P    1.250000

 Charge Fitting Sets (for the computation of the Coulomb Potential):  11
 -----------------------------------------------------------------------
   1 S    3.160000
   1 S    2.090000
   1 S    1.380000
   2 S    1.500000
   2 P    4.000000
   2 P    2.650000
   2 P    1.750000
   3 D    4.000000
   3 D    2.500000
   4 F    3.000000
   5 G    4.000000

 Atom Type    4  (Pd)
 ==============

 Valence Basis Sets:  26
 -----------------------
   1 S  306.000000
   1 S   76.400000
   1 S   45.900000
   2 S   53.800000
   2 S   19.550000
   3 S   10.150000
   3 S    6.650000
   4 S    6.150000
   4 S    3.900000
   5 S    2.500000
   5 S    1.450000
   5 S    0.850000
   2 P   29.100000
   2 P   18.750000
   3 P   11.250000
   3 P    8.100000
   4 P    5.950000
   4 P    3.950000
   4 P    2.700000
   3 D   17.550000
   3 D   10.450000
   3 D    6.900000
   4 D    4.250000
   4 D    2.200000
   4 D    1.100000
   5 P    1.450000

 Charge Fitting Sets (for the computation of the Coulomb Potential):  58
 -----------------------------------------------------------------------
   1 S  612.000000
   1 S  446.101000
   1 S  325.174000
   1 S  237.027000
   1 S  172.774000
   1 S  125.939000
   1 S   91.800000
   1 S   53.670000
   2 S   58.190000
   2 S   38.430000
   3 S   37.300000
   3 S   26.280000
   4 S   24.500000
   4 S   18.000000
   5 S   16.470000
   5 S   12.460000
   6 S   11.300000
   6 S    8.740000
   7 S    7.890000
   7 S    6.210000
   8 S    5.590000
   8 S    4.470000
   8 S    3.570000
   9 S    3.210000
   9 S    2.600000
   9 S    2.100000
   9 S    1.700000
   2 P   64.650000
   3 P   49.410000
   4 P   37.530000
   5 P   28.620000
   6 P   21.980000
   6 P   14.500000
   7 P   11.220000
   7 P    7.620000
   8 P    5.940000
   8 P    4.130000
   9 P    3.240000
   9 P    2.300000
   3 D   56.350000
   4 D   37.260000
   5 D   25.120000
   6 D   17.230000
   6 D   10.190000
   7 D    7.110000
   7 D    4.360000
   8 D    3.090000
   8 D    1.950000
   4 F   47.900000
   5 F   28.270000
   6 F   17.190000
   6 F    9.040000
   7 F    5.640000
   7 F    3.100000
   5 G   20.900000
   6 G    9.980000
   7 G    4.980000
   7 G    2.200000

 Atom Type    5  (Cl)
 ==============

 Valence Basis Sets:  13
 -----------------------
   1 S   20.300000
   1 S   15.250000
   2 S    6.250000
   2 S    4.450000
   2 P    8.850000
   2 P    5.050000
   3 S    3.450000
   3 S    2.300000
   3 S    1.600000
   3 P    3.350000
   3 P    2.050000
   3 P    1.200000
   3 D    2.000000

 Charge Fitting Sets (for the computation of the Coulomb Potential):  30
 -----------------------------------------------------------------------
   1 S   40.600000
   1 S   24.830000
   2 S   28.080000
   2 S   19.200000
   3 S   19.250000
   3 S   13.970000
   3 S   10.130000
   4 S    9.710000
   4 S    7.320000
   4 S    5.510000
   5 S    5.170000
   5 S    4.000000
   5 S    3.100000
   5 S    2.400000
   2 P   29.150000
   3 P   21.740000
   4 P   16.160000
   4 P    9.600000
   5 P    7.180000
   5 P    4.480000
   5 P    2.800000
   3 D   21.950000
   4 D   15.750000
   4 D    9.040000
   5 D    6.550000
   5 D    3.960000
   5 D    2.400000
   4 F    5.000000
   4 F    3.000000
   5 G    3.500000

 Atom Type    6  (S)
 ==============

 Valence Basis Sets:  13
 -----------------------
   1 S   19.400000
   1 S   14.350000
   2 S    5.900000
   2 S    4.250000
   2 P    8.050000
   2 P    4.550000
   3 S    3.450000
   3 S    2.250000
   3 S    1.500000
   3 P    2.650000
   3 P    1.600000
   3 P    1.000000
   3 D    2.100000

 Charge Fitting Sets (for the computation of the Coulomb Potential):  30
 -----------------------------------------------------------------------
   1 S   38.800000
   1 S   23.350000
   2 S   26.020000
   2 S   17.570000
   3 S   17.420000
   3 S   12.500000
   3 S    8.980000
   4 S    8.520000
   4 S    6.360000
   4 S    4.750000
   5 S    4.420000
   5 S    3.390000
   5 S    2.600000
   5 S    2.000000
   2 P   27.450000
   3 P   20.250000
   4 P   14.920000
   4 P    8.780000
   5 P    6.520000
   5 P    4.040000
   5 P    2.500000
   3 D   20.900000
   4 D   14.560000
   4 D    8.130000
   5 D    5.740000
   5 D    3.390000
   5 D    2.000000
   4 F    5.000000
   4 F    3.000000
   5 G    3.620000

 Atom Type    7  (F)
 ==============

 Valence Basis Sets:   9
 -----------------------
   1 S   10.880000
   1 S    7.700000
   2 S    3.240000
   2 S    1.940000
   2 S    0.740000
   2 P    4.540000
   2 P    2.300000
   2 P    1.240000
   3 D    2.000000

 Charge Fitting Sets (for the computation of the Coulomb Potential):  23
 -----------------------------------------------------------------------
   1 S   21.760000
   2 S   24.390000
   2 S   16.560000
   2 S   11.240000
   2 S    7.630000
   3 S    7.600000
   3 S    5.480000
   3 S    3.950000
   3 S    2.850000
   3 S    2.050000
   3 S    1.480000
   2 P   14.400000
   2 P    7.530000
   3 P    5.900000
   3 P    3.420000
   3 P    1.980000
   3 D    9.700000
   3 D    6.160000
   3 D    3.910000
   3 D    2.480000
   4 F    6.500000
   4 F    3.750000
   5 G    4.500000

 Atom Type    8  (O)
 ==============

 Valence Basis Sets:   9
 -----------------------
   1 S    9.800000
   1 S    6.800000
   2 S    7.580000
   2 S    2.880000
   2 S    1.720000
   2 P    4.080000
   2 P    2.080000
   2 P    1.120000
   3 D    2.000000

 Charge Fitting Sets (for the computation of the Coulomb Potential):  22
 -----------------------------------------------------------------------
   1 S   19.600000
   2 S   22.600000
   2 S   15.680000
   2 S   10.890000
   2 S    7.560000
   3 S    7.690000
   3 S    5.650000
   3 S    4.150000
   3 S    3.050000
   3 S    2.240000
   2 P   12.860000
   2 P    7.680000
   3 P    6.780000
   3 P    4.390000
   3 P    2.840000
   3 D    8.800000
   3 D    5.580000
   3 D    3.530000
   3 D    2.240000
   4 F    6.200000
   4 F    3.700000
   5 G    4.500000

 Atom Type    9  (N)
 ==============

 Valence Basis Sets:   9
 -----------------------
   1 S    8.740000
   1 S    5.900000
   2 S    5.150000
   2 S    2.500000
   2 S    1.500000
   2 P    3.680000
   2 P    1.880000
   2 P    1.000000
   3 D    2.200000

 Charge Fitting Sets (for the computation of the Coulomb Potential):  22
 -----------------------------------------------------------------------
   1 S   17.480000
   2 S   20.150000
   2 S   13.990000
   2 S    9.710000
   2 S    6.740000
   3 S    6.860000
   3 S    5.040000
   3 S    3.700000
   3 S    2.720000
   3 S    2.000000
   2 P   11.320000
   2 P    6.730000
   3 P    5.920000
   3 P    3.820000
   3 P    2.460000
   3 D    8.100000
   3 D    5.080000
   3 D    3.190000
   3 D    2.000000
   4 F    5.800000
   4 F    3.600000
   5 G    4.500000

 Atom Type   10  (C)
 ==============

 Valence Basis Sets:   9
 -----------------------
   1 S    7.680000
   1 S    5.000000
   2 S    1.280000
   2 S    2.100000
   2 S    4.600000
   2 P    0.820000
   2 P    1.480000
   2 P    2.940000
   3 D    2.200000

 Charge Fitting Sets (for the computation of the Coulomb Potential):  22
 -----------------------------------------------------------------------
   1 S   15.360000
   2 S   17.530000
   2 S   12.070000
   2 S    8.310000
   2 S    5.730000
   3 S    5.780000
   3 S    4.220000
   3 S    3.080000
   3 S    2.250000
   3 S    1.640000
   2 P    9.880000
   2 P    5.800000
   3 P    5.050000
   3 P    3.230000
   3 P    2.060000
   3 D    7.200000
   3 D    4.400000
   3 D    2.690000
   3 D    1.640000
   4 F    5.400000
   4 F    3.550000
   5 G    4.500000

 Atom Type   11  (H)
 ==============

 Valence Basis Sets:   4
 -----------------------
   1 S    0.690000
   1 S    0.920000
   1 S    1.580000
   2 P    1.250000

 Charge Fitting Sets (for the computation of the Coulomb Potential):  11
 -----------------------------------------------------------------------
   1 S    3.160000
   1 S    2.090000
   1 S    1.380000
   2 S    1.500000
   2 P    4.000000
   2 P    2.650000
   2 P    1.750000
   3 D    4.000000
   3 D    2.500000
   4 F    3.000000
   5 G    4.000000


 BAS: List of all Elementary Cartesian Basis Functions
 =====================================================

 The numbering in the list below (to the right of the function characteristics) is referred
 to in print-outs of MO eigenvectors and Mulliken populations in the BAS representation
 (as contrasted to the SFO representation).

 Notes:
 1. The functions are characterized by a polynomial prefactor (powers of x,y,z and r) and
    an exponential decay factor alpha.
 2. Since the basis sets are specific for an atom TYPE, the individual functions occur on
    all atoms of that type.
 3. The word 'Core' in the left margin signals that it is a Core Function (CF) : not a
    degree of freedom in the valence set, but only used to ensure orthogonalization of
    the other valence basis functions on the frozen Core Orbitals.


 (power of) X  Y  Z  R     Alpha  on Atom
            ==========     =====     ==========

 P                                    1    2
                                  ---------------------------------------------------------------------------
            0  0  0  0    18.000      1   29
            0  0  0  0    13.350      2   30
            0  0  0  1     5.600      3   31
            0  0  0  1     4.050      4   32
            1  0  0  0     7.450      5   33
            0  1  0  0     7.450      6   34
            0  0  1  0     7.450      7   35
            1  0  0  0     4.100      8   36
            0  1  0  0     4.100      9   37
            0  0  1  0     4.100     10   38
            0  0  0  2     2.700     11   39
            0  0  0  2     1.850     12   40
            0  0  0  2     1.300     13   41
            1  0  0  1     2.300     14   42
            0  1  0  1     2.300     15   43
            0  0  1  1     2.300     16   44
            1  0  0  1     1.350     17   45
            0  1  0  1     1.350     18   46
            0  0  1  1     1.350     19   47
            1  0  0  1     0.850     20   48
            0  1  0  1     0.850     21   49
            0  0  1  1     0.850     22   50
            2  0  0  0     1.900     23   51
            1  1  0  0     1.900     24   52
            1  0  1  0     1.900     25   53
            0  2  0  0     1.900     26   54
            0  1  1  0     1.900     27   55
            0  0  2  0     1.900     28   56

 C                                    3    4    5    6    7    8    9   10   11   12   13   14   15   16   17
                                     18   19   20   21   22   23   24   25   26   27   28   29   30   31   32
                                     33   34   35   36   37   38
                                  ---------------------------------------------------------------------------
            0  0  0  0     7.680     57   77   97  117  137  157  177  197  217  237  257  277  297  317  337
                                    357  377  397  417  437  457  477  497  517  537  557  577  597  617  637
                                    657  677  697  717  737  757
            0  0  0  0     5.000     58   78   98  118  138  158  178  198  218  238  258  278  298  318  338
                                    358  378  398  418  438  458  478  498  518  538  558  578  598  618  638
                                    658  678  698  718  738  758
            0  0  0  1     1.280     59   79   99  119  139  159  179  199  219  239  259  279  299  319  339
                                    359  379  399  419  439  459  479  499  519  539  559  579  599  619  639
                                    659  679  699  719  739  759
            0  0  0  1     2.100     60   80  100  120  140  160  180  200  220  240  260  280  300  320  340
                                    360  380  400  420  440  460  480  500  520  540  560  580  600  620  640
                                    660  680  700  720  740  760
            0  0  0  1     4.600     61   81  101  121  141  161  181  201  221  241  261  281  301  321  341
                                    361  381  401  421  441  461  481  501  521  541  561  581  601  621  641
                                    661  681  701  721  741  761
            1  0  0  0     0.820     62   82  102  122  142  162  182  202  222  242  262  282  302  322  342
                                    362  382  402  422  442  462  482  502  522  542  562  582  602  622  642
                                    662  682  702  722  742  762
            0  1  0  0     0.820     63   83  103  123  143  163  183  203  223  243  263  283  303  323  343
                                    363  383  403  423  443  463  483  503  523  543  563  583  603  623  643
                                    663  683  703  723  743  763
            0  0  1  0     0.820     64   84  104  124  144  164  184  204  224  244  264  284  304  324  344
                                    364  384  404  424  444  464  484  504  524  544  564  584  604  624  644
                                    664  684  704  724  744  764
            1  0  0  0     1.480     65   85  105  125  145  165  185  205  225  245  265  285  305  325  345
                                    365  385  405  425  445  465  485  505  525  545  565  585  605  625  645
                                    665  685  705  725  745  765
            0  1  0  0     1.480     66   86  106  126  146  166  186  206  226  246  266  286  306  326  346
                                    366  386  406  426  446  466  486  506  526  546  566  586  606  626  646
                                    666  686  706  726  746  766
            0  0  1  0     1.480     67   87  107  127  147  167  187  207  227  247  267  287  307  327  347
                                    367  387  407  427  447  467  487  507  527  547  567  587  607  627  647
                                    667  687  707  727  747  767
            1  0  0  0     2.940     68   88  108  128  148  168  188  208  228  248  268  288  308  328  348
                                    368  388  408  428  448  468  488  508  528  548  568  588  608  628  648
                                    668  688  708  728  748  768
            0  1  0  0     2.940     69   89  109  129  149  169  189  209  229  249  269  289  309  329  349
                                    369  389  409  429  449  469  489  509  529  549  569  589  609  629  649
                                    669  689  709  729  749  769
            0  0  1  0     2.940     70   90  110  130  150  170  190  210  230  250  270  290  310  330  350
                                    370  390  410  430  450  470  490  510  530  550  570  590  610  630  650
                                    670  690  710  730  750  770
            2  0  0  0     2.200     71   91  111  131  151  171  191  211  231  251  271  291  311  331  351
                                    371  391  411  431  451  471  491  511  531  551  571  591  611  631  651
                                    671  691  711  731  751  771
            1  1  0  0     2.200     72   92  112  132  152  172  192  212  232  252  272  292  312  332  352
                                    372  392  412  432  452  472  492  512  532  552  572  592  612  632  652
                                    672  692  712  732  752  772
            1  0  1  0     2.200     73   93  113  133  153  173  193  213  233  253  273  293  313  333  353
                                    373  393  413  433  453  473  493  513  533  553  573  593  613  633  653
                                    673  693  713  733  753  773
            0  2  0  0     2.200     74   94  114  134  154  174  194  214  234  254  274  294  314  334  354
                                    374  394  414  434  454  474  494  514  534  554  574  594  614  634  654
                                    674  694  714  734  754  774
            0  1  1  0     2.200     75   95  115  135  155  175  195  215  235  255  275  295  315  335  355
                                    375  395  415  435  455  475  495  515  535  555  575  595  615  635  655
                                    675  695  715  735  755  775
            0  0  2  0     2.200     76   96  116  136  156  176  196  216  236  256  276  296  316  336  356
                                    376  396  416  436  456  476  496  516  536  556  576  596  616  636  656
                                    676  696  716  736  756  776

 H                                   39   40   41   42   43   44   45   46   47   48   49   50   51   52   53
                                     54   55   56   57   58   59   60   61   62   63   64   65   66
                                  ---------------------------------------------------------------------------
            0  0  0  0     0.690    777  783  789  795  801  807  813  819  825  831  837  843  849  855  861
                                    867  873  879  885  891  897  903  909  915  921  927  933  939
            0  0  0  0     0.920    778  784  790  796  802  808  814  820  826  832  838  844  850  856  862
                                    868  874  880  886  892  898  904  910  916  922  928  934  940
            0  0  0  0     1.580    779  785  791  797  803  809  815  821  827  833  839  845  851  857  863
                                    869  875  881  887  893  899  905  911  917  923  929  935  941
            1  0  0  0     1.250    780  786  792  798  804  810  816  822  828  834  840  846  852  858  864
                                    870  876  882  888  894  900  906  912  918  924  930  936  942
            0  1  0  0     1.250    781  787  793  799  805  811  817  823  829  835  841  847  853  859  865
                                    871  877  883  889  895  901  907  913  919  925  931  937  943
            0  0  1  0     1.250    782  788  794  800  806  812  818  824  830  836  842  848  854  860  866
                                    872  878  884  890  896  902  908  914  920  926  932  938  944

 Pd                                  67
                                  ---------------------------------------------------------------------------
            0  0  0  0   306.000    945
            0  0  0  0    76.400    946
            0  0  0  0    45.900    947
            0  0  0  1    53.800    948
            0  0  0  1    19.550    949
            0  0  0  2    10.150    950
            0  0  0  2     6.650    951
            0  0  0  3     6.150    952
            0  0  0  3     3.900    953
            0  0  0  4     2.500    954
            0  0  0  4     1.450    955
            0  0  0  4     0.850    956
            1  0  0  0    29.100    957
            0  1  0  0    29.100    958
            0  0  1  0    29.100    959
            1  0  0  0    18.750    960
            0  1  0  0    18.750    961
            0  0  1  0    18.750    962
            1  0  0  1    11.250    963
            0  1  0  1    11.250    964
            0  0  1  1    11.250    965
            1  0  0  1     8.100    966
            0  1  0  1     8.100    967
            0  0  1  1     8.100    968
            1  0  0  2     5.950    969
            0  1  0  2     5.950    970
            0  0  1  2     5.950    971
            1  0  0  2     3.950    972
            0  1  0  2     3.950    973
            0  0  1  2     3.950    974
            1  0  0  2     2.700    975
            0  1  0  2     2.700    976
            0  0  1  2     2.700    977
            2  0  0  0    17.550    978
            1  1  0  0    17.550    979
            1  0  1  0    17.550    980
            0  2  0  0    17.550    981
            0  1  1  0    17.550    982
            0  0  2  0    17.550    983
            2  0  0  0    10.450    984
            1  1  0  0    10.450    985
            1  0  1  0    10.450    986
            0  2  0  0    10.450    987
            0  1  1  0    10.450    988
            0  0  2  0    10.450    989
            2  0  0  0     6.900    990
            1  1  0  0     6.900    991
            1  0  1  0     6.900    992
            0  2  0  0     6.900    993
            0  1  1  0     6.900    994
            0  0  2  0     6.900    995
            2  0  0  1     4.250    996
            1  1  0  1     4.250    997
            1  0  1  1     4.250    998
            0  2  0  1     4.250    999
            0  1  1  1     4.250   1000
            0  0  2  1     4.250   1001
            2  0  0  1     2.200   1002
            1  1  0  1     2.200   1003
            1  0  1  1     2.200   1004
            0  2  0  1     2.200   1005
            0  1  1  1     2.200   1006
            0  0  2  1     2.200   1007
            2  0  0  1     1.100   1008
            1  1  0  1     1.100   1009
            1  0  1  1     1.100   1010
            0  2  0  1     1.100   1011
            0  1  1  1     1.100   1012
            0  0  2  1     1.100   1013
            1  0  0  3     1.450   1014
            0  1  0  3     1.450   1015
            0  0  1  3     1.450   1016

 Cl                                  68
                                  ---------------------------------------------------------------------------
            0  0  0  0    20.300   1017
            0  0  0  0    15.250   1018
            0  0  0  1     6.250   1019
            0  0  0  1     4.450   1020
            1  0  0  0     8.850   1021
            0  1  0  0     8.850   1022
            0  0  1  0     8.850   1023
            1  0  0  0     5.050   1024
            0  1  0  0     5.050   1025
            0  0  1  0     5.050   1026
            0  0  0  2     3.450   1027
            0  0  0  2     2.300   1028
            0  0  0  2     1.600   1029
            1  0  0  1     3.350   1030
            0  1  0  1     3.350   1031
            0  0  1  1     3.350   1032
            1  0  0  1     2.050   1033
            0  1  0  1     2.050   1034
            0  0  1  1     2.050   1035
            1  0  0  1     1.200   1036
            0  1  0  1     1.200   1037
            0  0  1  1     1.200   1038
            2  0  0  0     2.000   1039
            1  1  0  0     2.000   1040
            1  0  1  0     2.000   1041
            0  2  0  0     2.000   1042
            0  1  1  0     2.000   1043
            0  0  2  0     2.000   1044

 S                                   69
                                  ---------------------------------------------------------------------------
            0  0  0  0    19.400   1045
            0  0  0  0    14.350   1046
            0  0  0  1     5.900   1047
            0  0  0  1     4.250   1048
            1  0  0  0     8.050   1049
            0  1  0  0     8.050   1050
            0  0  1  0     8.050   1051
            1  0  0  0     4.550   1052
            0  1  0  0     4.550   1053
            0  0  1  0     4.550   1054
            0  0  0  2     3.450   1055
            0  0  0  2     2.250   1056
            0  0  0  2     1.500   1057
            1  0  0  1     2.650   1058
            0  1  0  1     2.650   1059
            0  0  1  1     2.650   1060
            1  0  0  1     1.600   1061
            0  1  0  1     1.600   1062
            0  0  1  1     1.600   1063
            1  0  0  1     1.000   1064
            0  1  0  1     1.000   1065
            0  0  1  1     1.000   1066
            2  0  0  0     2.100   1067
            1  1  0  0     2.100   1068
            1  0  1  0     2.100   1069
            0  2  0  0     2.100   1070
            0  1  1  0     2.100   1071
            0  0  2  0     2.100   1072

 F                                   70   71   72   73
                                  ---------------------------------------------------------------------------
            0  0  0  0    10.880   1073 1093 1113 1133
            0  0  0  0     7.700   1074 1094 1114 1134
            0  0  0  1     3.240   1075 1095 1115 1135
            0  0  0  1     1.940   1076 1096 1116 1136
            0  0  0  1     0.740   1077 1097 1117 1137
            1  0  0  0     4.540   1078 1098 1118 1138
            0  1  0  0     4.540   1079 1099 1119 1139
            0  0  1  0     4.540   1080 1100 1120 1140
            1  0  0  0     2.300   1081 1101 1121 1141
            0  1  0  0     2.300   1082 1102 1122 1142
            0  0  1  0     2.300   1083 1103 1123 1143
            1  0  0  0     1.240   1084 1104 1124 1144
            0  1  0  0     1.240   1085 1105 1125 1145
            0  0  1  0     1.240   1086 1106 1126 1146
            2  0  0  0     2.000   1087 1107 1127 1147
            1  1  0  0     2.000   1088 1108 1128 1148
            1  0  1  0     2.000   1089 1109 1129 1149
            0  2  0  0     2.000   1090 1110 1130 1150
            0  1  1  0     2.000   1091 1111 1131 1151
            0  0  2  0     2.000   1092 1112 1132 1152

 O                                   74   75   76
                                  ---------------------------------------------------------------------------
            0  0  0  0     9.800   1153 1173 1193
            0  0  0  0     6.800   1154 1174 1194
            0  0  0  1     7.580   1155 1175 1195
            0  0  0  1     2.880   1156 1176 1196
            0  0  0  1     1.720   1157 1177 1197
            1  0  0  0     4.080   1158 1178 1198
            0  1  0  0     4.080   1159 1179 1199
            0  0  1  0     4.080   1160 1180 1200
            1  0  0  0     2.080   1161 1181 1201
            0  1  0  0     2.080   1162 1182 1202
            0  0  1  0     2.080   1163 1183 1203
            1  0  0  0     1.120   1164 1184 1204
            0  1  0  0     1.120   1165 1185 1205
            0  0  1  0     1.120   1166 1186 1206
            2  0  0  0     2.000   1167 1187 1207
            1  1  0  0     2.000   1168 1188 1208
            1  0  1  0     2.000   1169 1189 1209
            0  2  0  0     2.000   1170 1190 1210
            0  1  1  0     2.000   1171 1191 1211
            0  0  2  0     2.000   1172 1192 1212

 N                                   77
                                  ---------------------------------------------------------------------------
            0  0  0  0     8.740   1213
            0  0  0  0     5.900   1214
            0  0  0  1     5.150   1215
            0  0  0  1     2.500   1216
            0  0  0  1     1.500   1217
            1  0  0  0     3.680   1218
            0  1  0  0     3.680   1219
            0  0  1  0     3.680   1220
            1  0  0  0     1.880   1221
            0  1  0  0     1.880   1222
            0  0  1  0     1.880   1223
            1  0  0  0     1.000   1224
            0  1  0  0     1.000   1225
            0  0  1  0     1.000   1226
            2  0  0  0     2.200   1227
            1  1  0  0     2.200   1228
            1  0  1  0     2.200   1229
            0  2  0  0     2.200   1230
            0  1  1  0     2.200   1231
            0  0  2  0     2.200   1232

 C                                   78   79   80   81   82   83   84   85   86   87   88   89   90   91
                                  ---------------------------------------------------------------------------
            0  0  0  0     7.680   1233 1253 1273 1293 1313 1333 1353 1373 1393 1413 1433 1453 1473 1493
            0  0  0  0     5.000   1234 1254 1274 1294 1314 1334 1354 1374 1394 1414 1434 1454 1474 1494
            0  0  0  1     1.280   1235 1255 1275 1295 1315 1335 1355 1375 1395 1415 1435 1455 1475 1495
            0  0  0  1     2.100   1236 1256 1276 1296 1316 1336 1356 1376 1396 1416 1436 1456 1476 1496
            0  0  0  1     4.600   1237 1257 1277 1297 1317 1337 1357 1377 1397 1417 1437 1457 1477 1497
            1  0  0  0     0.820   1238 1258 1278 1298 1318 1338 1358 1378 1398 1418 1438 1458 1478 1498
            0  1  0  0     0.820   1239 1259 1279 1299 1319 1339 1359 1379 1399 1419 1439 1459 1479 1499
            0  0  1  0     0.820   1240 1260 1280 1300 1320 1340 1360 1380 1400 1420 1440 1460 1480 1500
            1  0  0  0     1.480   1241 1261 1281 1301 1321 1341 1361 1381 1401 1421 1441 1461 1481 1501
            0  1  0  0     1.480   1242 1262 1282 1302 1322 1342 1362 1382 1402 1422 1442 1462 1482 1502
            0  0  1  0     1.480   1243 1263 1283 1303 1323 1343 1363 1383 1403 1423 1443 1463 1483 1503
            1  0  0  0     2.940   1244 1264 1284 1304 1324 1344 1364 1384 1404 1424 1444 1464 1484 1504
            0  1  0  0     2.940   1245 1265 1285 1305 1325 1345 1365 1385 1405 1425 1445 1465 1485 1505
[...]
     450       11.3389         0.000       
     449       11.2743         0.000       
     448       11.2568         0.000       
     447       11.1773         0.000       
     446       11.1196         0.000       
     445       11.0643         0.000       
     444       11.0281         0.000       
     443       11.0097         0.000       
     442       10.9367         0.000       
     441       10.8693         0.000       
     440       10.8614         0.000       
     439       10.7751         0.000       
     438       10.7147         0.000       
     437       10.6915         0.000       
     436       10.6014         0.000       
     435       10.5646         0.000       
     434       10.5157         0.000       
     433       10.4771         0.000       
     432       10.3891         0.000       
     431       10.3649         0.000       
     430       10.2498         0.000       
     429       10.1897         0.000       
     428       10.1779         0.000       
     427       10.1479         0.000       
     426       10.0721         0.000       
     425       10.0313         0.000       
     424        9.9815         0.000       
     423        9.9210         0.000       
     422        9.8900         0.000       
     421        9.8383         0.000       
     420        9.7167         0.000       
     419        9.6842         0.000       
     418        9.6263         0.000       
     417        9.6108         0.000       
     416        9.5312         0.000       
     415        9.4577         0.000       
     414        9.4296         0.000       
     413        9.3753         0.000       
     412        9.2758         0.000       
     411        9.2284         0.000       
     410        9.2161         0.000       
     409        9.1632         0.000       
     408        9.1374         0.000       
     407        9.1110         0.000       
     406        9.0582         0.000       
     405        8.9923         0.000       
     404        8.9095         0.000       
     403        8.8499         0.000       
     402        8.7957         0.000       
     401        8.7446         0.000       
     400        8.7398         0.000       
     399        8.6258         0.000       
     398        8.5980         0.000       
     397        8.4877         0.000       
     396        8.3772         0.000       
     395        8.2824         0.000       
     394        8.1741         0.000       
     393        8.1350         0.000       
     392        8.0696         0.000       
     391        8.0339         0.000       
     390        7.9864         0.000       
     389        7.9672         0.000       
     388        7.8581         0.000       
     387        7.7846         0.000       
     386        7.7558         0.000       
     385        7.7168         0.000       
     384        7.6636         0.000       
     383        7.5066         0.000       
     382        7.4515         0.000       
     381        7.3730         0.000       
     380        7.3263         0.000       
     379        7.3015         0.000       
     378        7.2615         0.000       
     377        7.2217         0.000       
     376        7.0823         0.000       
     375        7.0178         0.000       
     374        6.9531         0.000       
     373        6.9042         0.000       
     372        6.7978         0.000       
     371        6.7567         0.000       
     370        6.7272         0.000       
     369        6.6384         0.000       
     368        6.5984         0.000       
     367        6.5375         0.000       
     366        6.4817         0.000       
     365        6.4448         0.000       
     364        6.4140         0.000       
     363        6.3328         0.000       
     362        6.2476         0.000       
     361        6.1815         0.000       
     360        6.1571         0.000       
     359        6.0935         0.000       
     358        6.0030         0.000       
     357        5.9570         0.000       
     356        5.8938         0.000       
     355        5.8572         0.000       
     354        5.8088         0.000       
     353        5.7440         0.000       
     352        5.7054         0.000       
     351        5.6832         0.000       
     350        5.5949         0.000       
     349        5.5732         0.000       
     348        5.5134         0.000       
     347        5.4710         0.000       
     346        5.4090         0.000       
     345        5.3799         0.000       
     344        5.3536         0.000       
     343        5.2642         0.000       
     342        5.1765         0.000       
     341        5.1299         0.000       
     340        5.0547         0.000       
     339        4.9903         0.000       
     338        4.9318         0.000       
     337        4.8841         0.000       
     336        4.8126         0.000       
     335        4.6889         0.000       
     334        4.6558         0.000       
     333        4.5043         0.000       
     332        4.4394         0.000       
     331        4.4006         0.000       
     330        4.2860         0.000       
     329        4.1862         0.000       
     328        4.1481         0.000       
     327        4.0852         0.000       
     326        4.0058         0.000       
     325        3.9186         0.000       
     324        3.8493         0.000       
     323        3.7543         0.000       
     322        3.6689         0.000       
     321        3.6066         0.000       
     320        3.5383         0.000       
     319        3.4329         0.000       
     318        3.3435         0.000       
     317        3.2832         0.000       
     316        3.2578         0.000       
     315        3.1267         0.000       
     314        3.0894         0.000       
     313        3.0726         0.000       
     312        3.0202         0.000       
     311        2.9727         0.000       
     310        2.8998         0.000       
     309        2.8331         0.000       
     308        2.7837         0.000       
     307        2.7532         0.000       
     306        2.6969         0.000       
     305        2.6306         0.000       
     304        2.5763         0.000       
     303        2.5103         0.000       
     302        2.4708         0.000       
     301        2.3366         0.000       
     300        2.2593         0.000       
     299        2.1747         0.000       
     298        2.1060         0.000       
     297        2.0225         0.000       
     296        1.9433         0.000       
     295        1.9235         0.000       
     294        1.9030         0.000       
     293        1.7551         0.000       
     292        1.6880         0.000       
     291        1.6111         0.000       
     290        1.4924         0.000       
     289        1.4251         0.000       
     288        1.3711         0.000       
     287        1.2977         0.000       
     286        1.2332         0.000       
     285        1.1690         0.000       
     284        1.1343         0.000       
     283        1.0210         0.000       
     282        0.9928         0.000       
     281        0.8546         0.000       
     280        0.8017         0.000       
     279        0.7858         0.000       
     278        0.5812         0.000       
     277        0.5324         0.000       
     276        0.4576         0.000       
     275        0.3664         0.000       
     274        0.2651         0.000       
     273        0.1584         0.000       
     272        0.0507         0.000       
     271        0.0238         0.000       
     270       -0.1803         0.000       
     269       -0.2459         0.000       
     268       -0.2919         0.000       
     267       -0.3790         0.000       
     266       -0.4870         0.000       
     265       -0.6298         0.000       
     264       -0.6814         0.000       
     263       -0.7924         0.000       
     262       -0.9986         0.000       
     261       -1.0830         0.000       
     260       -1.1380         0.000       
     259       -1.2674         0.000       
     258       -1.5202         0.000       
     257       -1.7803         0.000 < LUMO
     256       -5.8365         2.000 < HOMO
     255       -6.0200         2.000       
     254       -6.5035         2.000       
     253       -6.8320         2.000       
     252       -6.8722         2.000       
     251       -7.0965         2.000       
     250       -7.1975         2.000       
     249       -7.2294         2.000       
     248       -7.3613         2.000       
     247       -7.3894         2.000       
     246       -7.4568         2.000       
     245       -7.4855         2.000       
     244       -7.5621         2.000       
     243       -7.6165         2.000       
     242       -7.7626         2.000       
     241       -7.8671         2.000       
     240       -7.9134         2.000       
     239       -7.9633         2.000       
     238       -8.0931         2.000       
     237       -8.1986         2.000       
     236       -8.3010         2.000       
     235       -8.4167         2.000       
     234       -8.4784         2.000       
     233       -8.5118         2.000       
     232       -8.6302         2.000       
     231       -8.7277         2.000       
     230       -9.1174         2.000       
     229       -9.1693         2.000       
     228       -9.2359         2.000       
     227       -9.2893         2.000       
     226       -9.4827         2.000       
     225       -9.6225         2.000       
     224       -9.6562         2.000       
     223       -9.8186         2.000       
     222       -9.8640         2.000       
     221       -9.9260         2.000       
     220       -9.9638         2.000       
     219      -10.0577         2.000       
     218      -10.1055         2.000       
     217      -10.1524         2.000       
     216      -10.1763         2.000       
     215      -10.2555         2.000       
     214      -10.3179         2.000       
     213      -10.4518         2.000       
     212      -10.4874         2.000       
     211      -10.5073         2.000       
     210      -10.5827         2.000       
     209      -10.7353         2.000       
     208      -10.8051         2.000       
     207      -10.8310         2.000       
     206      -10.9598         2.000       
     205      -10.9997         2.000       
     204      -11.0962         2.000       
     203      -11.2379         2.000       
     202      -11.4197         2.000       
     201      -11.4373         2.000       
     200      -11.5868         2.000       
     199      -11.7394         2.000       
     198      -11.7915         2.000       
     197      -11.8748         2.000       
     196      -11.9306         2.000       
     195      -11.9586         2.000       
     194      -12.0386         2.000       
     193      -12.0799         2.000       
     192      -12.1078         2.000       
     191      -12.1811         2.000       
     190      -12.2617         2.000       
     189      -12.3290         2.000       
     188      -12.3759         2.000       
     187      -12.3888         2.000       
     186      -12.4709         2.000       
     185      -12.4877         2.000       
     184      -12.6597         2.000       
     183      -12.7683         2.000       
     182      -12.7806         2.000       
     181      -12.8109         2.000       
     180      -12.8825         2.000       
     179      -12.9577         2.000       
     178      -12.9854         2.000       
     177      -13.0436         2.000       
     176      -13.0866         2.000       
     175      -13.1272         2.000       
     174      -13.1669         2.000       
     173      -13.1771         2.000       
     172      -13.1945         2.000       
     171      -13.3077         2.000       
     170      -13.3827         2.000       
     169      -13.4223         2.000       
     168      -13.4570         2.000       
     167      -13.5017         2.000       
     166      -13.5664         2.000       
     165      -13.8327         2.000       
     164      -13.9881         2.000       
     163      -14.1355         2.000       
     162      -14.3261         2.000       
     161      -14.4674         2.000       
     160      -14.5820         2.000       
     159      -14.7022         2.000       
     158      -14.7479         2.000       
     157      -14.7804         2.000       
     156      -14.9408         2.000       
     155      -15.0304         2.000       
     154      -15.2524         2.000       
     153      -15.3751         2.000       
     152      -15.8285         2.000       
     151      -15.9228         2.000       
     150      -15.9927         2.000       
     149      -16.3668         2.000       
     148      -16.5390         2.000       
     147      -16.7359         2.000       
     146      -16.8708         2.000       
     145      -16.9741         2.000       
     144      -17.0069         2.000       
     143      -17.2107         2.000       
     142      -17.2367         2.000       
     141      -17.3012         2.000       
     140      -17.3573         2.000       
     139      -17.4517         2.000       
     138      -17.6040         2.000       
     137      -17.7225         2.000       
     136      -18.1861         2.000       
     135      -18.2509         2.000       
     134      -18.3263         2.000       
     133      -18.7995         2.000       
     132      -19.1989         2.000       
     131      -19.3824         2.000       
     130      -19.7538         2.000       
     129      -20.6370         2.000       
     128      -20.9212         2.000       
     127      -20.9306         2.000       
     126      -21.0945         2.000       
     125      -21.1518         2.000       
     124      -21.1839         2.000       
     123      -21.2220         2.000       
     122      -21.3517         2.000       
     121      -21.4107         2.000       
     120      -21.4363         2.000       
     119      -21.5484         2.000       
     118      -21.6681         2.000       
     117      -22.0908         2.000       
     116      -22.1684         2.000       
     115      -22.4200         2.000       
     114      -22.6260         2.000       
     113      -23.8329         2.000       
     112      -24.1351         2.000       
     111      -24.2248         2.000       
     110      -24.2901         2.000       
     109      -24.3582         2.000       
     108      -24.4812         2.000       
     107      -24.5863         2.000       
     106      -24.7116         2.000       
     105      -25.2588         2.000       
     104      -25.7381         2.000       
     103      -27.4415         2.000       
     102      -30.0694         2.000       
     101      -30.4568         2.000       
     100      -34.4010         2.000       
      99      -34.5834         2.000       
      98      -34.8646         2.000       
      97      -35.1297         2.000       
      96      -57.9338         2.000       
      95      -58.7226         2.000       
      94      -58.8118         2.000       
      93      -93.9227         2.000       
      92     -129.7921         2.000       
      91     -129.8752         2.000       
      90     -129.8837         2.000       
      89     -130.2366         2.000       
      88     -130.3081         2.000       
      87     -130.3185         2.000       
      86     -165.2120         2.000       
      85     -165.2218         2.000       
      84     -165.2455         2.000       
      83     -181.6599         2.000       
      82     -182.0943         2.000       
      81     -197.2252         2.000       
      80     -197.2418         2.000       
      79     -197.5048         2.000       
      78     -222.7701         2.000       
      77     -260.8685         2.000       
      76     -278.2186         2.000       
      75     -278.3034         2.000       
      74     -278.3268         2.000       
      73     -278.3495         2.000       
      72     -278.6039         2.000       
      71     -278.6456         2.000       
      70     -278.6614         2.000       
      69     -278.6648         2.000       
      68     -278.6835         2.000       
      67     -278.7028         2.000       
      66     -278.7729         2.000       
      65     -278.8272         2.000       
      64     -278.8281         2.000       
      63     -278.8327         2.000       
      62     -278.8873         2.000       
      61     -278.8951         2.000       
      60     -278.9800         2.000       
      59     -278.9986         2.000       
      58     -279.0053         2.000       
      57     -279.0206         2.000       
      56     -279.0255         2.000       
      55     -279.0445         2.000       
      54     -279.0525         2.000       
      53     -279.0530         2.000       
      52     -279.0539         2.000       
      51     -279.0648         2.000       
      50     -279.0662         2.000       
      49     -279.0841         2.000       
      48     -279.0858         2.000       
      47     -279.1187         2.000       
      46     -279.1203         2.000       
      45     -279.1253         2.000       
      44     -279.1437         2.000       
      43     -279.1598         2.000       
      42     -279.1829         2.000       
      41     -279.3014         2.000       
      40     -279.3841         2.000       
      39     -279.4158         2.000       
      38     -279.4524         2.000       
      37     -279.5012         2.000       
      36     -279.6404         2.000       
      35     -279.6823         2.000       
      34     -279.6994         2.000       
      33     -279.8300         2.000       
      32     -279.9328         2.000       
      31     -280.2535         2.000       
      30     -280.7766         2.000       
      29     -280.9755         2.000       
      28     -281.0054         2.000       
      27     -281.0451         2.000       
      26     -338.2416         2.000       
      25     -338.2857         2.000       
      24     -338.3376         2.000       
      23     -338.5128         2.000       
      22     -338.5161         2.000       
      21     -391.5552         2.000       
      20     -522.1945         2.000       
      19     -522.2033         2.000       
      18     -523.8606         2.000       
      17     -532.0420         2.000       
      16     -532.3677         2.000       
      15     -532.4462         2.000       
      14     -654.1299         2.000       
      13     -674.8001         2.000       
      12     -675.1685         2.000       
      11     -675.2881         2.000       
      10     -675.2895         2.000       
       9    -2107.7399         2.000       
       8    -2108.1896         2.000       
       7    -2434.5684         2.000       
       6    -2777.0929         2.000       
       5    -3190.2433         2.000       
       4    -3190.3834         2.000       
       3    -3190.4103         2.000       
       2    -3561.3181         2.000       
       1   -24224.4488         2.000       

AMS application finished. Exiting.
NORMAL TERMINATION
     Total cpu time:    4920.64
  Total system time:      45.61
 Total elapsed time:    4984.22
NORMAL TERMINATION
