

 Parallel Execution: Process Information
 ==============================================================================
 Rank   Node Name                              NodeID   MyNodeRank  NodeMaster
    0   eu-g9-002-4                               0          0          0
    1   eu-g9-002-4                               1          0          1
    2   eu-g9-002-4                               0          1         -1
    3   eu-g9-002-4                               1          1         -1
    4   eu-g9-002-4                               2          0          2
    5   eu-g9-002-4                               1          2         -1
    6   eu-g9-002-4                               2          1         -1
    7   eu-g9-002-4                               1          3         -1
    8   eu-g9-002-4                               3          0          3
    9   eu-g9-002-4                               1          4         -1
   10   eu-g9-002-4                               3          1         -1
   11   eu-g9-002-4                               1          5         -1
   12   eu-g9-002-4                               3          2         -1
   13   eu-g9-002-4                               1          6         -1
   14   eu-g9-002-4                               3          3         -1
   15   eu-g9-002-4                               1          7         -1
 ==============================================================================


May use up to 22802MB of RAM as shared memory on node 0
May use up to 22069MB of RAM as shared memory on node 1
May use up to 23069MB of RAM as shared memory on node 2
May use up to 23069MB of RAM as shared memory on node 3

 *******************************************************************************
 *                                                                             *
 *  --------------------------------                                           *
 *   Amsterdam Modeling Suite (AMS)              2023.101                      *
 *  --------------------------------                                           *
 *                                               r111868 2023-03-31            *
 *                                                                             *
 *                                                                             *
 *                              =================                              *
 *                              |               |                              *
 *                              |     A M S     |                              *
 *                              |               |                              *
 *                              =================                              *
 *                                                                             *
 *                                                                             *
 *   Online information and documentation:  https://www.scm.com/support/       *
 *   E-mail:  support@scm.com   info@scm.com                                   *
 *                                                                             *
 *   Scientific publications using AMS results must be properly referenced     *
 *   See the User Manuals (or the web site) for recommended citations          *
 *   The terms and conditions of the End User License Agreement apply to       *
 *   the use of AMS, https://www.scm.com/license-terms/                        *
 *                                                                             *
 ***********************  x86_64_linux_intel / openmpi  ************************
 
 Licensed to: D-CHAB / ETH site license / Zurich / Switzerland 2023-06-23 15:55:12
 SCM User ID: u7035
  
 AMS 2023.101  RunTime: May25-2024 09:13:27  ShM Nodes: 4  Procs: 16

 AMS jobname: gs_dppe
 AMS jobid  : 2077963877

 Start   directory: /cluster/scratch/sroediger/michael/eda/
 Results directory: /cluster/scratch/sroediger/michael/eda/gs_dppe.results/
 Scratch directory: /scratch/amstmp_gs_dppe_kid0.2077963877/


 Communication costs MPI_COMM_WORLD:      7.251 usec per message,   0.0156 usec per 8-byte item
 Communication costs for intra-node:      0.391 usec per message,   0.0015 usec per 8-byte item

 RNG seed: 612203532 -281841405 -2074514880 1997416855 1646788660 -140119182 634443027 1017096133



                     *************************************************************************
                     *  ADF 2023.101  RunTime: May25-2024 09:13:28  ShM Nodes: 4  Procs: 16  *
                     *************************************************************************
  

       ****************************
       * SINGLE POINT CALCULATION *
       ****************************
 
--------
Geometry
--------
Formula: C40H32ClF4NO3P2PdS
Atoms
  Index Symbol   x (angstrom)   y (angstrom)   z (angstrom)
      1     Pd    -0.12225700    -0.49346900    -0.17667100       region=pdsubstrate adf.f=pdsubstrate
      2     Cl    -0.47412600    -1.50025300    -3.29849600       region=pdsubstrate adf.f=pdsubstrate
      3      S    -1.41755900     1.25914300    -2.53600100       region=pdsubstrate adf.f=pdsubstrate
      4      P     0.50536100    -2.09055900     1.26731100       region=ligand adf.f=ligand
      5      P    -2.22676200    -0.59216400     0.84010000       region=ligand adf.f=ligand
      6      F     3.40115300     3.21056100     0.70544000       region=pdsubstrate adf.f=pdsubstrate
      7      F     2.00612900     5.38107000     1.39832300       region=pdsubstrate adf.f=pdsubstrate
      8      F    -0.62104600     5.59506200     0.73370900       region=pdsubstrate adf.f=pdsubstrate
      9      F    -1.84396300     3.61039400    -0.59137100       region=pdsubstrate adf.f=pdsubstrate
     10      O    -2.68198600     0.56316400    -2.30320100       region=pdsubstrate adf.f=pdsubstrate
     11      O    -1.39556000     2.57153100    -3.17589700       region=pdsubstrate adf.f=pdsubstrate
     12      O     5.58288600     0.40483100    -2.46916000       region=pdsubstrate adf.f=pdsubstrate
     13      N    -0.52970200     1.24249500    -1.19413400       region=pdsubstrate adf.f=pdsubstrate
     14      C     1.77241500    -0.22267400    -0.86734500       region=pdsubstrate adf.f=pdsubstrate
     15      C     2.54323100    -1.25465500    -1.41865400       region=pdsubstrate adf.f=pdsubstrate
     16      H     2.14853300    -2.27223000    -1.44701800       region=pdsubstrate adf.f=pdsubstrate
     17      C     3.80790800    -1.03055600    -1.94788900       region=pdsubstrate adf.f=pdsubstrate
     18      H     4.40143500    -1.84374500    -2.37097000       region=pdsubstrate adf.f=pdsubstrate
     19      C     4.34455200     0.26116300    -1.94403800       region=pdsubstrate adf.f=pdsubstrate
     20      C     6.15921800     1.67865500    -2.48190100       region=pdsubstrate adf.f=pdsubstrate
     21      H     7.15684600     1.57016000    -2.92688800       region=pdsubstrate adf.f=pdsubstrate
     22      H     6.26546800     2.09418000    -1.46367900       region=pdsubstrate adf.f=pdsubstrate
     23      H     5.57467300     2.39146300    -3.09106200       region=pdsubstrate adf.f=pdsubstrate
     24      C     3.58922100     1.31075400    -1.42354200       region=pdsubstrate adf.f=pdsubstrate
     25      H     3.97806500     2.32742900    -1.43780400       region=pdsubstrate adf.f=pdsubstrate
     26      C     2.30779900     1.07972100    -0.88791100       region=pdsubstrate adf.f=pdsubstrate
     27      C     1.53268100     2.24784600    -0.40610200       region=pdsubstrate adf.f=pdsubstrate
     28      C     2.12406900     3.28381500     0.32009400       region=pdsubstrate adf.f=pdsubstrate
     29      C     1.41645600     4.42253700     0.69512700       region=pdsubstrate adf.f=pdsubstrate
     30      C     0.07448700     4.53609500     0.34630900       region=pdsubstrate adf.f=pdsubstrate
     31      C    -0.54992000     3.50546200    -0.34677000       region=pdsubstrate adf.f=pdsubstrate
     32      C     0.14954600     2.34592800    -0.70337700       region=pdsubstrate adf.f=pdsubstrate
     33      C    -0.48968400     0.22118500    -3.70419700       region=pdsubstrate adf.f=pdsubstrate
     34      H    -0.98478900     0.35363400    -4.67494500       region=pdsubstrate adf.f=pdsubstrate
     35      H     0.54206000     0.59448600    -3.72719100       region=pdsubstrate adf.f=pdsubstrate
     36      C    -1.89454700    -1.45280400     2.45394500       region=ligand adf.f=ligand
     37      H    -1.38267800    -0.73501700     3.11490600       region=ligand adf.f=ligand
     38      H    -2.83540500    -1.74244100     2.94545300       region=ligand adf.f=ligand
     39      C    -1.00659400    -2.65824700     2.17798300       region=ligand adf.f=ligand
     40      H    -1.52231400    -3.38032400     1.52356800       region=ligand adf.f=ligand
     41      H    -0.72479800    -3.19116300     3.09877000       region=ligand adf.f=ligand
     42      C    -2.87215800     1.04090500     1.29588600       region=ligand adf.f=ligand
     43      C    -2.08315700     1.85312500     2.12317400       region=ligand adf.f=ligand
     44      H    -1.12415800     1.48717500     2.50247600       region=ligand adf.f=ligand
     45      C    -2.49633700     3.14449500     2.43453400       region=ligand adf.f=ligand
     46      H    -1.87280800     3.77663300     3.07082200       region=ligand adf.f=ligand
     47      C    -3.69079800     3.63876900     1.91118400       region=ligand adf.f=ligand
     48      H    -4.00621700     4.65858200     2.14245200       region=ligand adf.f=ligand
     49      C    -4.46364400     2.84248200     1.06939000       region=ligand adf.f=ligand
     50      H    -5.38556600     3.23717900     0.63656800       region=ligand adf.f=ligand
     51      C    -4.05669100     1.54770000     0.75448900       region=ligand adf.f=ligand
     52      H    -4.64605900     0.93823700     0.06686000       region=ligand adf.f=ligand
     53      C    -3.60090100    -1.56408400     0.15161700       region=ligand adf.f=ligand
     54      C    -3.46246900    -2.12836200    -1.12005600       region=ligand adf.f=ligand
     55      H    -2.57113400    -1.91052100    -1.71063500       region=ligand adf.f=ligand
     56      C    -4.48052600    -2.92585500    -1.64139900       region=ligand adf.f=ligand
     57      H    -4.36860300    -3.35833800    -2.63822300       region=ligand adf.f=ligand
     58      C    -5.63914100    -3.15514700    -0.90296200       region=ligand adf.f=ligand
     59      H    -6.43735600    -3.77675900    -1.31596400       region=ligand adf.f=ligand
     60      C    -5.78710100    -2.58273800     0.36183000       region=ligand adf.f=ligand
     61      H    -6.69966800    -2.75265300     0.93806800       region=ligand adf.f=ligand
     62      C    -4.77164100    -1.79057900     0.88903100       region=ligand adf.f=ligand
     63      H    -4.89755900    -1.33543100     1.87547200       region=ligand adf.f=ligand
     64      C     1.24655700    -3.60831500     0.59857800       region=ligand adf.f=ligand
     65      C     0.49933600    -4.31875400    -0.35229500       region=ligand adf.f=ligand
     66      H    -0.50037000    -3.97277000    -0.63277900       region=ligand adf.f=ligand
     67      C     1.04025700    -5.44236000    -0.96862500       region=ligand adf.f=ligand
     68      H     0.45334400    -5.99053100    -1.70900500       region=ligand adf.f=ligand
     69      C     2.33560900    -5.85593500    -0.65330900       region=ligand adf.f=ligand
     70      H     2.76330400    -6.73324800    -1.14406600       region=ligand adf.f=ligand
     71      C     3.08752300    -5.14073400     0.27627000       region=ligand adf.f=ligand
     72      H     4.10727100    -5.45271200     0.51305700       region=ligand adf.f=ligand
     73      C     2.54829000    -4.01715000     0.90152000       region=ligand adf.f=ligand
     74      H     3.14882500    -3.44690600     1.61305200       region=ligand adf.f=ligand
     75      C     1.60750400    -1.47968400     2.58234100       region=ligand adf.f=ligand
     76      C     1.89735500    -2.26230400     3.70969400       region=ligand adf.f=ligand
     77      H     1.48665300    -3.27155900     3.80256100       region=ligand adf.f=ligand
     78      C     2.72169200    -1.76272900     4.71395600       region=ligand adf.f=ligand
     79      H     2.94553100    -2.37790600     5.58860600       region=ligand adf.f=ligand
     80      C     3.26238600    -0.48003900     4.60263700       region=ligand adf.f=ligand
     81      H     3.91032600    -0.09189100     5.39219300       region=ligand adf.f=ligand
     82      C     2.97763900     0.30199900     3.48574500       region=ligand adf.f=ligand
     83      H     3.40095300     1.30379900     3.38279600       region=ligand adf.f=ligand
     84      C     2.15147700    -0.19461100     2.47892000       region=ligand adf.f=ligand
     85      H     1.93544600     0.40823100     1.59547600       region=ligand adf.f=ligand
 
Total System Charge             0.00000
Bonding info available!
 
 
----------------
ADF Engine Input
----------------
 
 Basis
 Type TZP
 Core None
 End
 Fragments
 ligand ./gs_dppe.ligand.results/adf.rkf
 pdsubstrate ./gs_dppe.pdsubstrate.results/adf.rkf
 End
 XC
 Hybrid PBE0
 DISPERSION Grimme3 BJDAMP
 End
 NumericalQuality VeryGood
 

 Title: *** (NO TITLE) ***

 *** adf ***



 ===========================
 A T T A C H E D   F I L E S
 ===========================
  



 ===============================
 M O D E L   P A R A M E T E R S
 ===============================
  
 DENSITY FUNCTIONAL POTENTIAL (scf)
    Hybrid:                            PBE0                                    == Not Default ==

 SPIN  (restricted / unrestr.)
    Molecule:                          Restricted                               
    Fragments:                         Restricted                               

 OTHER ASPECTS
    Relativistic Corrections:          scalar (ZORA,MAPA)                       

    Nuclear Charge Density Model:      Point Charge Nuclei                      
    Core Treatment:                    Frozen Orbital(s)                        

    Hyperfine or Zeeman Interaction:   ---                                      

 Settings for Grimme D3 dispersion correction

      damping                        BJ
      s6                          1.000
      s8                          1.218
      a1                          0.414
      a2                          4.859

 Other (technical) parameters

      alpha                      14.000
      version                         4
 


 Fragment File(s)
 ----------------
 pdsubstrate:
         file : ./gs_dppe.pdsubstrate.results/adf.rkf
         jobid: 1044334836
         title: *** adf ***
 ligand:
         file : ./gs_dppe.ligand.results/adf.rkf
         jobid: 427005421
         title: *** adf ***



 ===============
 G E O M E T R Y  ***  3D  Molecule  ***
 ===============
  

 ATOMS
 =====                            X Y Z                    CHARGE
                                (Angstrom)             Nucl     +Core       At.Mass
                       --------------------------    ----------------       -------
    1  Pd             -0.1223   -0.4935   -0.1767     46.00     46.00      105.9035
    2  Cl             -0.4741   -1.5003   -3.2985     17.00     17.00       34.9689
    3  S              -1.4176    1.2591   -2.5360     16.00     16.00       31.9721
    4  P               0.5054   -2.0906    1.2673     15.00     15.00       30.9738
    5  P              -2.2268   -0.5922    0.8401     15.00     15.00       30.9738
    6  F               3.4012    3.2106    0.7054      9.00      9.00       18.9984
    7  F               2.0061    5.3811    1.3983      9.00      9.00       18.9984
    8  F              -0.6210    5.5951    0.7337      9.00      9.00       18.9984
    9  F              -1.8440    3.6104   -0.5914      9.00      9.00       18.9984
   10  O              -2.6820    0.5632   -2.3032      8.00      8.00       15.9949
   11  O              -1.3956    2.5715   -3.1759      8.00      8.00       15.9949
   12  O               5.5829    0.4048   -2.4692      8.00      8.00       15.9949
   13  N              -0.5297    1.2425   -1.1941      7.00      7.00       14.0031
   14  C               1.7724   -0.2227   -0.8673      6.00      6.00       12.0000
   15  C               2.5432   -1.2547   -1.4187      6.00      6.00       12.0000
   16  H               2.1485   -2.2722   -1.4470      1.00      1.00        1.0078
   17  C               3.8079   -1.0306   -1.9479      6.00      6.00       12.0000
   18  H               4.4014   -1.8437   -2.3710      1.00      1.00        1.0078
   19  C               4.3446    0.2612   -1.9440      6.00      6.00       12.0000
   20  C               6.1592    1.6787   -2.4819      6.00      6.00       12.0000
   21  H               7.1568    1.5702   -2.9269      1.00      1.00        1.0078
   22  H               6.2655    2.0942   -1.4637      1.00      1.00        1.0078
   23  H               5.5747    2.3915   -3.0911      1.00      1.00        1.0078
   24  C               3.5892    1.3108   -1.4235      6.00      6.00       12.0000
   25  H               3.9781    2.3274   -1.4378      1.00      1.00        1.0078
   26  C               2.3078    1.0797   -0.8879      6.00      6.00       12.0000
   27  C               1.5327    2.2478   -0.4061      6.00      6.00       12.0000
   28  C               2.1241    3.2838    0.3201      6.00      6.00       12.0000
   29  C               1.4165    4.4225    0.6951      6.00      6.00       12.0000
   30  C               0.0745    4.5361    0.3463      6.00      6.00       12.0000
   31  C              -0.5499    3.5055   -0.3468      6.00      6.00       12.0000
   32  C               0.1495    2.3459   -0.7034      6.00      6.00       12.0000
   33  C              -0.4897    0.2212   -3.7042      6.00      6.00       12.0000
   34  H              -0.9848    0.3536   -4.6749      1.00      1.00        1.0078
   35  H               0.5421    0.5945   -3.7272      1.00      1.00        1.0078
   36  C              -1.8945   -1.4528    2.4539      6.00      6.00       12.0000
   37  H              -1.3827   -0.7350    3.1149      1.00      1.00        1.0078
   38  H              -2.8354   -1.7424    2.9455      1.00      1.00        1.0078
   39  C              -1.0066   -2.6582    2.1780      6.00      6.00       12.0000
   40  H              -1.5223   -3.3803    1.5236      1.00      1.00        1.0078
   41  H              -0.7248   -3.1912    3.0988      1.00      1.00        1.0078
   42  C              -2.8722    1.0409    1.2959      6.00      6.00       12.0000
   43  C              -2.0832    1.8531    2.1232      6.00      6.00       12.0000
   44  H              -1.1242    1.4872    2.5025      1.00      1.00        1.0078
   45  C              -2.4963    3.1445    2.4345      6.00      6.00       12.0000
   46  H              -1.8728    3.7766    3.0708      1.00      1.00        1.0078
   47  C              -3.6908    3.6388    1.9112      6.00      6.00       12.0000
   48  H              -4.0062    4.6586    2.1425      1.00      1.00        1.0078
   49  C              -4.4636    2.8425    1.0694      6.00      6.00       12.0000
   50  H              -5.3856    3.2372    0.6366      1.00      1.00        1.0078
   51  C              -4.0567    1.5477    0.7545      6.00      6.00       12.0000
   52  H              -4.6461    0.9382    0.0669      1.00      1.00        1.0078
   53  C              -3.6009   -1.5641    0.1516      6.00      6.00       12.0000
   54  C              -3.4625   -2.1284   -1.1201      6.00      6.00       12.0000
   55  H              -2.5711   -1.9105   -1.7106      1.00      1.00        1.0078
   56  C              -4.4805   -2.9259   -1.6414      6.00      6.00       12.0000
   57  H              -4.3686   -3.3583   -2.6382      1.00      1.00        1.0078
   58  C              -5.6391   -3.1551   -0.9030      6.00      6.00       12.0000
   59  H              -6.4374   -3.7768   -1.3160      1.00      1.00        1.0078
   60  C              -5.7871   -2.5827    0.3618      6.00      6.00       12.0000
   61  H              -6.6997   -2.7527    0.9381      1.00      1.00        1.0078
   62  C              -4.7716   -1.7906    0.8890      6.00      6.00       12.0000
   63  H              -4.8976   -1.3354    1.8755      1.00      1.00        1.0078
   64  C               1.2466   -3.6083    0.5986      6.00      6.00       12.0000
   65  C               0.4993   -4.3188   -0.3523      6.00      6.00       12.0000
   66  H              -0.5004   -3.9728   -0.6328      1.00      1.00        1.0078
   67  C               1.0403   -5.4424   -0.9686      6.00      6.00       12.0000
   68  H               0.4533   -5.9905   -1.7090      1.00      1.00        1.0078
   69  C               2.3356   -5.8559   -0.6533      6.00      6.00       12.0000
   70  H               2.7633   -6.7332   -1.1441      1.00      1.00        1.0078
   71  C               3.0875   -5.1407    0.2763      6.00      6.00       12.0000
   72  H               4.1073   -5.4527    0.5131      1.00      1.00        1.0078
   73  C               2.5483   -4.0171    0.9015      6.00      6.00       12.0000
   74  H               3.1488   -3.4469    1.6131      1.00      1.00        1.0078
   75  C               1.6075   -1.4797    2.5823      6.00      6.00       12.0000
   76  C               1.8974   -2.2623    3.7097      6.00      6.00       12.0000
   77  H               1.4867   -3.2716    3.8026      1.00      1.00        1.0078
   78  C               2.7217   -1.7627    4.7140      6.00      6.00       12.0000
   79  H               2.9455   -2.3779    5.5886      1.00      1.00        1.0078
   80  C               3.2624   -0.4800    4.6026      6.00      6.00       12.0000
   81  H               3.9103   -0.0919    5.3922      1.00      1.00        1.0078
   82  C               2.9776    0.3020    3.4857      6.00      6.00       12.0000
   83  H               3.4010    1.3038    3.3828      1.00      1.00        1.0078
   84  C               2.1515   -0.1946    2.4789      6.00      6.00       12.0000
   85  H               1.9354    0.4082    1.5955      1.00      1.00        1.0078


 FRAGMENTS
 =========                                     Atoms in this Fragment     Cart. coord.s (Angstrom)
                                               -------------------------------------------------------
    1  pdsubstrate                                       1  Pd          -0.1223   -0.4935   -0.1767
                                                         2  Cl          -0.4741   -1.5003   -3.2985
                                                         3  S           -1.4176    1.2591   -2.5360
                                                        34  H           -0.9848    0.3536   -4.6749
                                                        35  H            0.5421    0.5945   -3.7272
                                                        16  H            2.1485   -2.2722   -1.4470
                                                        18  H            4.4014   -1.8437   -2.3710
                                                        21  H            7.1568    1.5702   -2.9269
                                                        22  H            6.2655    2.0942   -1.4637
                                                        23  H            5.5747    2.3915   -3.0911
                                                        25  H            3.9781    2.3274   -1.4378
                                                         6  F            3.4012    3.2106    0.7054
                                                         7  F            2.0061    5.3811    1.3983
                                                         8  F           -0.6210    5.5951    0.7337
                                                         9  F           -1.8440    3.6104   -0.5914
                                                        10  O           -2.6820    0.5632   -2.3032
                                                        11  O           -1.3956    2.5715   -3.1759
                                                        12  O            5.5829    0.4048   -2.4692
                                                        13  N           -0.5297    1.2425   -1.1941
                                                        14  C            1.7724   -0.2227   -0.8673
                                                        15  C            2.5432   -1.2547   -1.4187
                                                        17  C            3.8079   -1.0306   -1.9479
                                                        19  C            4.3446    0.2612   -1.9440
                                                        20  C            6.1592    1.6787   -2.4819
                                                        24  C            3.5892    1.3108   -1.4235
                                                        26  C            2.3078    1.0797   -0.8879
                                                        27  C            1.5327    2.2478   -0.4061
                                                        28  C            2.1241    3.2838    0.3201
                                                        29  C            1.4165    4.4225    0.6951
                                                        30  C            0.0745    4.5361    0.3463
                                                        31  C           -0.5499    3.5055   -0.3468
                                                        32  C            0.1495    2.3459   -0.7034
                                                        33  C           -0.4897    0.2212   -3.7042
    2  ligand                                           53  C           -3.6009   -1.5641    0.1516
                                                        54  C           -3.4625   -2.1284   -1.1201
                                                        56  C           -4.4805   -2.9259   -1.6414
                                                        58  C           -5.6391   -3.1551   -0.9030
                                                        60  C           -5.7871   -2.5827    0.3618
                                                        62  C           -4.7716   -1.7906    0.8890
                                                        64  C            1.2466   -3.6083    0.5986
                                                        65  C            0.4993   -4.3188   -0.3523
                                                        67  C            1.0403   -5.4424   -0.9686
                                                        69  C            2.3356   -5.8559   -0.6533
                                                        71  C            3.0875   -5.1407    0.2763
                                                        73  C            2.5483   -4.0171    0.9015
                                                        75  C            1.6075   -1.4797    2.5823
                                                        76  C            1.8974   -2.2623    3.7097
                                                        78  C            2.7217   -1.7627    4.7140
                                                        80  C            3.2624   -0.4800    4.6026
                                                        82  C            2.9776    0.3020    3.4857
                                                        84  C            2.1515   -0.1946    2.4789
                                                        36  C           -1.8945   -1.4528    2.4539
                                                        39  C           -1.0066   -2.6582    2.1780
                                                        42  C           -2.8722    1.0409    1.2959
                                                        43  C           -2.0832    1.8531    2.1232
                                                        45  C           -2.4963    3.1445    2.4345
                                                        47  C           -3.6908    3.6388    1.9112
                                                        49  C           -4.4636    2.8425    1.0694
                                                        51  C           -4.0567    1.5477    0.7545
                                                        55  H           -2.5711   -1.9105   -1.7106
                                                        57  H           -4.3686   -3.3583   -2.6382
                                                        59  H           -6.4374   -3.7768   -1.3160
                                                        61  H           -6.6997   -2.7527    0.9381
                                                        63  H           -4.8976   -1.3354    1.8755
                                                        66  H           -0.5004   -3.9728   -0.6328
                                                        68  H            0.4533   -5.9905   -1.7090
                                                        70  H            2.7633   -6.7332   -1.1441
                                                        72  H            4.1073   -5.4527    0.5131
                                                        74  H            3.1488   -3.4469    1.6131
                                                        77  H            1.4867   -3.2716    3.8026
                                                        79  H            2.9455   -2.3779    5.5886
                                                        81  H            3.9103   -0.0919    5.3922
                                                        83  H            3.4010    1.3038    3.3828
                                                        85  H            1.9354    0.4082    1.5955
                                                        37  H           -1.3827   -0.7350    3.1149
                                                        38  H           -2.8354   -1.7424    2.9455
                                                        40  H           -1.5223   -3.3803    1.5236
                                                        41  H           -0.7248   -3.1912    3.0988
                                                        44  H           -1.1242    1.4872    2.5025
                                                        46  H           -1.8728    3.7766    3.0708
                                                        48  H           -4.0062    4.6586    2.1425
                                                        50  H           -5.3856    3.2372    0.6366
                                                        52  H           -4.6461    0.9382    0.0669
                                                         4  P            0.5054   -2.0906    1.2673
                                                         5  P           -2.2268   -0.5922    0.8401



 =====================================
 S Y M M E T R Y ,   E L E C T R O N S
 =====================================
  
 Symmetry: NOSYM

 Irreducible Representations, including subspecies
 -------------------------------------------------
 A


 Configuration of Valence Electrons
 ==================================
 ( determined in the SCF procedure )

 Total:   448

 Net Charge: 0 (Nuclei minus Electrons)

 Aufbau principle for MO occupations will be applied through SCF cycle no.     150
 Thereafter, the program will assign electrons to MOs that are spatially
 similar to the occupied MOs in a "reference" cycle ("KeepOrbitals").
 The reference cycle is always the PREVIOUS cycle: it will evolve with
 the SCF procedure.
1
 ***************************************************************************************************



                                      ****************************************
                                      *  B U I L D : (Fragments, Functions)  *
                                      ****************************************
  

 The individual fragments are copies of the corresponding 'Master' fragments defined on the fragment files.
 However, they may have been rotated (and translated) with respect to the Master. The local coordinate axes
 of each fragment (which define for instance the spatial orientation in the current molecule of a fragment
 P:x orbital) are not necessarily those of the molecule.
 The local frame (if different from the molecular one) is printed to enable an interpretation of the expan-
 sion of an MO in Fragment Orbitals.



                                         *********************************
                                         *  Fragment Type : pdsubstrate  *
                                         *********************************
  

 Fragment no.    1   (in the list of all fragments)
 -----------------
 The local coordinate frame is identical to the molecular frame.

 Check Atomic Coordinates:

                  Master (on file)          After Computed Tranformation               As specified on Input
           ----------------------------     ----------------------------     ---------------------------------
     1)    -0.12226  -0.49347  -0.17667     -0.12226  -0.49347  -0.17667       1  -0.12226  -0.49347  -0.17667
     2)    -0.47413  -1.50025  -3.29850     -0.47413  -1.50025  -3.29850       2  -0.47413  -1.50025  -3.29850
     3)    -1.41756   1.25914  -2.53600     -1.41756   1.25914  -2.53600       3  -1.41756   1.25914  -2.53600
     4)    -0.98479   0.35363  -4.67495     -0.98479   0.35363  -4.67495      34  -0.98479   0.35363  -4.67495
     5)     0.54206   0.59449  -3.72719      0.54206   0.59449  -3.72719      35   0.54206   0.59449  -3.72719
     6)     2.14853  -2.27223  -1.44702      2.14853  -2.27223  -1.44702      16   2.14853  -2.27223  -1.44702
     7)     4.40144  -1.84374  -2.37097      4.40144  -1.84374  -2.37097      18   4.40144  -1.84374  -2.37097
     8)     7.15685   1.57016  -2.92689      7.15685   1.57016  -2.92689      21   7.15685   1.57016  -2.92689
     9)     6.26547   2.09418  -1.46368      6.26547   2.09418  -1.46368      22   6.26547   2.09418  -1.46368
    10)     5.57467   2.39146  -3.09106      5.57467   2.39146  -3.09106      23   5.57467   2.39146  -3.09106
    11)     3.97806   2.32743  -1.43780      3.97806   2.32743  -1.43780      25   3.97806   2.32743  -1.43780
    12)     3.40115   3.21056   0.70544      3.40115   3.21056   0.70544       6   3.40115   3.21056   0.70544
    13)     2.00613   5.38107   1.39832      2.00613   5.38107   1.39832       7   2.00613   5.38107   1.39832
    14)    -0.62105   5.59506   0.73371     -0.62105   5.59506   0.73371       8  -0.62105   5.59506   0.73371
    15)    -1.84396   3.61039  -0.59137     -1.84396   3.61039  -0.59137       9  -1.84396   3.61039  -0.59137
    16)    -2.68199   0.56316  -2.30320     -2.68199   0.56316  -2.30320      10  -2.68199   0.56316  -2.30320
    17)    -1.39556   2.57153  -3.17590     -1.39556   2.57153  -3.17590      11  -1.39556   2.57153  -3.17590
    18)     5.58289   0.40483  -2.46916      5.58289   0.40483  -2.46916      12   5.58289   0.40483  -2.46916
    19)    -0.52970   1.24249  -1.19413     -0.52970   1.24249  -1.19413      13  -0.52970   1.24249  -1.19413
    20)     1.77242  -0.22267  -0.86735      1.77242  -0.22267  -0.86735      14   1.77242  -0.22267  -0.86735
    21)     2.54323  -1.25466  -1.41865      2.54323  -1.25466  -1.41865      15   2.54323  -1.25466  -1.41865
    22)     3.80791  -1.03056  -1.94789      3.80791  -1.03056  -1.94789      17   3.80791  -1.03056  -1.94789
    23)     4.34455   0.26116  -1.94404      4.34455   0.26116  -1.94404      19   4.34455   0.26116  -1.94404
    24)     6.15922   1.67866  -2.48190      6.15922   1.67866  -2.48190      20   6.15922   1.67866  -2.48190
    25)     3.58922   1.31075  -1.42354      3.58922   1.31075  -1.42354      24   3.58922   1.31075  -1.42354
    26)     2.30780   1.07972  -0.88791      2.30780   1.07972  -0.88791      26   2.30780   1.07972  -0.88791
    27)     1.53268   2.24785  -0.40610      1.53268   2.24785  -0.40610      27   1.53268   2.24785  -0.40610
    28)     2.12407   3.28382   0.32009      2.12407   3.28382   0.32009      28   2.12407   3.28382   0.32009
    29)     1.41646   4.42254   0.69513      1.41646   4.42254   0.69513      29   1.41646   4.42254   0.69513
    30)     0.07449   4.53610   0.34631      0.07449   4.53610   0.34631      30   0.07449   4.53610   0.34631
    31)    -0.54992   3.50546  -0.34677     -0.54992   3.50546  -0.34677      31  -0.54992   3.50546  -0.34677
    32)     0.14955   2.34593  -0.70338      0.14955   2.34593  -0.70338      32   0.14955   2.34593  -0.70338
    33)    -0.48968   0.22118  -3.70420     -0.48968   0.22118  -3.70420      33  -0.48968   0.22118  -3.70420



                                            ****************************
                                            *  Fragment Type : ligand  *
                                            ****************************
  

 Fragment no.    2   (in the list of all fragments)
 -----------------
 The local coordinate frame is identical to the molecular frame.

 Check Atomic Coordinates:

                  Master (on file)          After Computed Tranformation               As specified on Input
           ----------------------------     ----------------------------     ---------------------------------
     1)    -3.60090  -1.56408   0.15162     -3.60090  -1.56408   0.15162      53  -3.60090  -1.56408   0.15162
     2)    -3.46247  -2.12836  -1.12006     -3.46247  -2.12836  -1.12006      54  -3.46247  -2.12836  -1.12006
     3)    -4.48053  -2.92585  -1.64140     -4.48053  -2.92585  -1.64140      56  -4.48053  -2.92585  -1.64140
     4)    -5.63914  -3.15515  -0.90296     -5.63914  -3.15515  -0.90296      58  -5.63914  -3.15515  -0.90296
     5)    -5.78710  -2.58274   0.36183     -5.78710  -2.58274   0.36183      60  -5.78710  -2.58274   0.36183
     6)    -4.77164  -1.79058   0.88903     -4.77164  -1.79058   0.88903      62  -4.77164  -1.79058   0.88903
     7)     1.24656  -3.60832   0.59858      1.24656  -3.60832   0.59858      64   1.24656  -3.60832   0.59858
     8)     0.49934  -4.31875  -0.35230      0.49934  -4.31875  -0.35230      65   0.49934  -4.31875  -0.35230
     9)     1.04026  -5.44236  -0.96862      1.04026  -5.44236  -0.96862      67   1.04026  -5.44236  -0.96862
    10)     2.33561  -5.85593  -0.65331      2.33561  -5.85593  -0.65331      69   2.33561  -5.85593  -0.65331
    11)     3.08752  -5.14073   0.27627      3.08752  -5.14073   0.27627      71   3.08752  -5.14073   0.27627
    12)     2.54829  -4.01715   0.90152      2.54829  -4.01715   0.90152      73   2.54829  -4.01715   0.90152
    13)     1.60750  -1.47968   2.58234      1.60750  -1.47968   2.58234      75   1.60750  -1.47968   2.58234
    14)     1.89735  -2.26230   3.70969      1.89735  -2.26230   3.70969      76   1.89735  -2.26230   3.70969
    15)     2.72169  -1.76273   4.71396      2.72169  -1.76273   4.71396      78   2.72169  -1.76273   4.71396
    16)     3.26239  -0.48004   4.60264      3.26239  -0.48004   4.60264      80   3.26239  -0.48004   4.60264
    17)     2.97764   0.30200   3.48575      2.97764   0.30200   3.48575      82   2.97764   0.30200   3.48575
    18)     2.15148  -0.19461   2.47892      2.15148  -0.19461   2.47892      84   2.15148  -0.19461   2.47892
    19)    -1.89455  -1.45280   2.45395     -1.89455  -1.45280   2.45395      36  -1.89455  -1.45280   2.45395
    20)    -1.00659  -2.65825   2.17798     -1.00659  -2.65825   2.17798      39  -1.00659  -2.65825   2.17798
    21)    -2.87216   1.04090   1.29589     -2.87216   1.04090   1.29589      42  -2.87216   1.04090   1.29589
    22)    -2.08316   1.85312   2.12317     -2.08316   1.85312   2.12317      43  -2.08316   1.85312   2.12317
    23)    -2.49634   3.14450   2.43453     -2.49634   3.14450   2.43453      45  -2.49634   3.14450   2.43453
    24)    -3.69080   3.63877   1.91118     -3.69080   3.63877   1.91118      47  -3.69080   3.63877   1.91118
    25)    -4.46364   2.84248   1.06939     -4.46364   2.84248   1.06939      49  -4.46364   2.84248   1.06939
    26)    -4.05669   1.54770   0.75449     -4.05669   1.54770   0.75449      51  -4.05669   1.54770   0.75449
    27)    -2.57113  -1.91052  -1.71063     -2.57113  -1.91052  -1.71063      55  -2.57113  -1.91052  -1.71063
    28)    -4.36860  -3.35834  -2.63822     -4.36860  -3.35834  -2.63822      57  -4.36860  -3.35834  -2.63822
    29)    -6.43736  -3.77676  -1.31596     -6.43736  -3.77676  -1.31596      59  -6.43736  -3.77676  -1.31596
    30)    -6.69967  -2.75265   0.93807     -6.69967  -2.75265   0.93807      61  -6.69967  -2.75265   0.93807
    31)    -4.89756  -1.33543   1.87547     -4.89756  -1.33543   1.87547      63  -4.89756  -1.33543   1.87547
    32)    -0.50037  -3.97277  -0.63278     -0.50037  -3.97277  -0.63278      66  -0.50037  -3.97277  -0.63278
    33)     0.45334  -5.99053  -1.70901      0.45334  -5.99053  -1.70901      68   0.45334  -5.99053  -1.70901
    34)     2.76330  -6.73325  -1.14407      2.76330  -6.73325  -1.14407      70   2.76330  -6.73325  -1.14407
    35)     4.10727  -5.45271   0.51306      4.10727  -5.45271   0.51306      72   4.10727  -5.45271   0.51306
    36)     3.14882  -3.44691   1.61305      3.14882  -3.44691   1.61305      74   3.14882  -3.44691   1.61305
    37)     1.48665  -3.27156   3.80256      1.48665  -3.27156   3.80256      77   1.48665  -3.27156   3.80256
    38)     2.94553  -2.37791   5.58861      2.94553  -2.37791   5.58861      79   2.94553  -2.37791   5.58861
    39)     3.91033  -0.09189   5.39219      3.91033  -0.09189   5.39219      81   3.91033  -0.09189   5.39219
    40)     3.40095   1.30380   3.38280      3.40095   1.30380   3.38280      83   3.40095   1.30380   3.38280
    41)     1.93545   0.40823   1.59548      1.93545   0.40823   1.59548      85   1.93545   0.40823   1.59548
    42)    -1.38268  -0.73502   3.11491     -1.38268  -0.73502   3.11491      37  -1.38268  -0.73502   3.11491
    43)    -2.83541  -1.74244   2.94545     -2.83541  -1.74244   2.94545      38  -2.83541  -1.74244   2.94545
    44)    -1.52231  -3.38032   1.52357     -1.52231  -3.38032   1.52357      40  -1.52231  -3.38032   1.52357
    45)    -0.72480  -3.19116   3.09877     -0.72480  -3.19116   3.09877      41  -0.72480  -3.19116   3.09877
    46)    -1.12416   1.48717   2.50248     -1.12416   1.48717   2.50248      44  -1.12416   1.48717   2.50248
    47)    -1.87281   3.77663   3.07082     -1.87281   3.77663   3.07082      46  -1.87281   3.77663   3.07082
    48)    -4.00622   4.65858   2.14245     -4.00622   4.65858   2.14245      48  -4.00622   4.65858   2.14245
    49)    -5.38557   3.23718   0.63657     -5.38557   3.23718   0.63657      50  -5.38557   3.23718   0.63657
    50)    -4.64606   0.93824   0.06686     -4.64606   0.93824   0.06686      52  -4.64606   0.93824   0.06686
    51)     0.50536  -2.09056   1.26731      0.50536  -2.09056   1.26731       4   0.50536  -2.09056   1.26731
    52)    -2.22676  -0.59216   0.84010     -2.22676  -0.59216   0.84010       5  -2.22676  -0.59216   0.84010

 Total nr. of (C)SFOs (summation over all irreps) :  1278

 Specify PRINT SFO in the input file to get a full list

 Nr. of SFOs for ir.rep.           A :  1278



 ================================
 (Slater-type)  F U N C T I O N S  ***  (Basis and Fit)  ***
 ================================
  

 Atom Type    1  (Pd)
 ==============

 Valence Basis Sets:  26
 -----------------------
   1 S  306.000000
   1 S   76.400000
   1 S   45.900000
   2 S   53.800000
   2 S   19.550000
   3 S   10.150000
   3 S    6.650000
   4 S    6.150000
   4 S    3.900000
   5 S    2.500000
   5 S    1.450000
   5 S    0.850000
   2 P   29.100000
   2 P   18.750000
   3 P   11.250000
   3 P    8.100000
   4 P    5.950000
   4 P    3.950000
   4 P    2.700000
   3 D   17.550000
   3 D   10.450000
   3 D    6.900000
   4 D    4.250000
   4 D    2.200000
   4 D    1.100000
   5 P    1.450000

 Charge Fitting Sets (for the computation of the Coulomb Potential):  58
 -----------------------------------------------------------------------
   1 S  612.000000
   1 S  446.101000
   1 S  325.174000
   1 S  237.027000
   1 S  172.774000
   1 S  125.939000
   1 S   91.800000
   1 S   53.670000
   2 S   58.190000
   2 S   38.430000
   3 S   37.300000
   3 S   26.280000
   4 S   24.500000
   4 S   18.000000
   5 S   16.470000
   5 S   12.460000
   6 S   11.300000
   6 S    8.740000
   7 S    7.890000
   7 S    6.210000
   8 S    5.590000
   8 S    4.470000
   8 S    3.570000
   9 S    3.210000
   9 S    2.600000
   9 S    2.100000
   9 S    1.700000
   2 P   64.650000
   3 P   49.410000
   4 P   37.530000
   5 P   28.620000
   6 P   21.980000
   6 P   14.500000
   7 P   11.220000
   7 P    7.620000
   8 P    5.940000
   8 P    4.130000
   9 P    3.240000
   9 P    2.300000
   3 D   56.350000
   4 D   37.260000
   5 D   25.120000
   6 D   17.230000
   6 D   10.190000
   7 D    7.110000
   7 D    4.360000
   8 D    3.090000
   8 D    1.950000
   4 F   47.900000
   5 F   28.270000
   6 F   17.190000
   6 F    9.040000
   7 F    5.640000
   7 F    3.100000
   5 G   20.900000
   6 G    9.980000
   7 G    4.980000
   7 G    2.200000

 Atom Type    2  (Cl)
 ==============

 Valence Basis Sets:  13
 -----------------------
   1 S   20.300000
   1 S   15.250000
   2 S    6.250000
   2 S    4.450000
   2 P    8.850000
   2 P    5.050000
   3 S    3.450000
   3 S    2.300000
   3 S    1.600000
   3 P    3.350000
   3 P    2.050000
   3 P    1.200000
   3 D    2.000000

 Charge Fitting Sets (for the computation of the Coulomb Potential):  30
 -----------------------------------------------------------------------
   1 S   40.600000
   1 S   24.830000
   2 S   28.080000
   2 S   19.200000
   3 S   19.250000
   3 S   13.970000
   3 S   10.130000
   4 S    9.710000
   4 S    7.320000
   4 S    5.510000
   5 S    5.170000
   5 S    4.000000
   5 S    3.100000
   5 S    2.400000
   2 P   29.150000
   3 P   21.740000
   4 P   16.160000
   4 P    9.600000
   5 P    7.180000
   5 P    4.480000
   5 P    2.800000
   3 D   21.950000
   4 D   15.750000
   4 D    9.040000
   5 D    6.550000
   5 D    3.960000
   5 D    2.400000
   4 F    5.000000
   4 F    3.000000
   5 G    3.500000

 Atom Type    3  (S)
 ==============

 Valence Basis Sets:  13
 -----------------------
   1 S   19.400000
   1 S   14.350000
   2 S    5.900000
   2 S    4.250000
   2 P    8.050000
   2 P    4.550000
   3 S    3.450000
   3 S    2.250000
   3 S    1.500000
   3 P    2.650000
   3 P    1.600000
   3 P    1.000000
   3 D    2.100000

 Charge Fitting Sets (for the computation of the Coulomb Potential):  30
 -----------------------------------------------------------------------
   1 S   38.800000
   1 S   23.350000
   2 S   26.020000
   2 S   17.570000
   3 S   17.420000
   3 S   12.500000
   3 S    8.980000
   4 S    8.520000
   4 S    6.360000
   4 S    4.750000
   5 S    4.420000
   5 S    3.390000
   5 S    2.600000
   5 S    2.000000
   2 P   27.450000
   3 P   20.250000
   4 P   14.920000
   4 P    8.780000
   5 P    6.520000
   5 P    4.040000
   5 P    2.500000
   3 D   20.900000
   4 D   14.560000
   4 D    8.130000
   5 D    5.740000
   5 D    3.390000
   5 D    2.000000
   4 F    5.000000
   4 F    3.000000
   5 G    3.620000

 Atom Type    4  (H)
 ==============

 Valence Basis Sets:   4
 -----------------------
   1 S    0.690000
   1 S    0.920000
   1 S    1.580000
   2 P    1.250000

 Charge Fitting Sets (for the computation of the Coulomb Potential):  11
 -----------------------------------------------------------------------
   1 S    3.160000
   1 S    2.090000
   1 S    1.380000
   2 S    1.500000
   2 P    4.000000
   2 P    2.650000
   2 P    1.750000
   3 D    4.000000
   3 D    2.500000
   4 F    3.000000
   5 G    4.000000

 Atom Type    5  (F)
 ==============

 Valence Basis Sets:   9
 -----------------------
   1 S   10.880000
   1 S    7.700000
   2 S    3.240000
   2 S    1.940000
   2 S    0.740000
   2 P    4.540000
   2 P    2.300000
   2 P    1.240000
   3 D    2.000000

 Charge Fitting Sets (for the computation of the Coulomb Potential):  23
 -----------------------------------------------------------------------
   1 S   21.760000
   2 S   24.390000
   2 S   16.560000
   2 S   11.240000
   2 S    7.630000
   3 S    7.600000
   3 S    5.480000
   3 S    3.950000
   3 S    2.850000
   3 S    2.050000
   3 S    1.480000
   2 P   14.400000
   2 P    7.530000
   3 P    5.900000
   3 P    3.420000
   3 P    1.980000
   3 D    9.700000
   3 D    6.160000
   3 D    3.910000
   3 D    2.480000
   4 F    6.500000
   4 F    3.750000
   5 G    4.500000

 Atom Type    6  (O)
 ==============

 Valence Basis Sets:   9
 -----------------------
   1 S    9.800000
   1 S    6.800000
   2 S    7.580000
   2 S    2.880000
   2 S    1.720000
   2 P    4.080000
   2 P    2.080000
   2 P    1.120000
   3 D    2.000000

 Charge Fitting Sets (for the computation of the Coulomb Potential):  22
 -----------------------------------------------------------------------
   1 S   19.600000
   2 S   22.600000
   2 S   15.680000
   2 S   10.890000
   2 S    7.560000
   3 S    7.690000
   3 S    5.650000
   3 S    4.150000
   3 S    3.050000
   3 S    2.240000
   2 P   12.860000
   2 P    7.680000
   3 P    6.780000
   3 P    4.390000
   3 P    2.840000
   3 D    8.800000
   3 D    5.580000
   3 D    3.530000
   3 D    2.240000
   4 F    6.200000
   4 F    3.700000
   5 G    4.500000

 Atom Type    7  (N)
 ==============

 Valence Basis Sets:   9
 -----------------------
   1 S    8.740000
   1 S    5.900000
   2 S    5.150000
   2 S    2.500000
   2 S    1.500000
   2 P    3.680000
   2 P    1.880000
   2 P    1.000000
   3 D    2.200000

 Charge Fitting Sets (for the computation of the Coulomb Potential):  22
 -----------------------------------------------------------------------
   1 S   17.480000
   2 S   20.150000
   2 S   13.990000
   2 S    9.710000
   2 S    6.740000
   3 S    6.860000
   3 S    5.040000
   3 S    3.700000
   3 S    2.720000
   3 S    2.000000
   2 P   11.320000
   2 P    6.730000
   3 P    5.920000
   3 P    3.820000
   3 P    2.460000
   3 D    8.100000
   3 D    5.080000
   3 D    3.190000
   3 D    2.000000
   4 F    5.800000
   4 F    3.600000
   5 G    4.500000

 Atom Type    8  (C)
 ==============

 Valence Basis Sets:   9
 -----------------------
   1 S    7.680000
   1 S    5.000000
   2 S    1.280000
   2 S    2.100000
   2 S    4.600000
   2 P    0.820000
   2 P    1.480000
   2 P    2.940000
   3 D    2.200000

 Charge Fitting Sets (for the computation of the Coulomb Potential):  22
 -----------------------------------------------------------------------
   1 S   15.360000
   2 S   17.530000
   2 S   12.070000
   2 S    8.310000
   2 S    5.730000
   3 S    5.780000
   3 S    4.220000
   3 S    3.080000
   3 S    2.250000
   3 S    1.640000
   2 P    9.880000
   2 P    5.800000
   3 P    5.050000
   3 P    3.230000
   3 P    2.060000
   3 D    7.200000
   3 D    4.400000
   3 D    2.690000
   3 D    1.640000
   4 F    5.400000
   4 F    3.550000
   5 G    4.500000

 Atom Type    9  (C)
 ==============

 Valence Basis Sets:   9
 -----------------------
   1 S    7.680000
   1 S    5.000000
   2 S    1.280000
   2 S    2.100000
   2 S    4.600000
   2 P    0.820000
   2 P    1.480000
   2 P    2.940000
   3 D    2.200000

 Charge Fitting Sets (for the computation of the Coulomb Potential):  22
 -----------------------------------------------------------------------
   1 S   15.360000
   2 S   17.530000
   2 S   12.070000
   2 S    8.310000
   2 S    5.730000
   3 S    5.780000
   3 S    4.220000
   3 S    3.080000
   3 S    2.250000
   3 S    1.640000
   2 P    9.880000
   2 P    5.800000
   3 P    5.050000
   3 P    3.230000
   3 P    2.060000
   3 D    7.200000
   3 D    4.400000
   3 D    2.690000
   3 D    1.640000
   4 F    5.400000
   4 F    3.550000
   5 G    4.500000

 Atom Type   10  (H)
 ==============

 Valence Basis Sets:   4
 -----------------------
   1 S    0.690000
   1 S    0.920000
   1 S    1.580000
   2 P    1.250000

 Charge Fitting Sets (for the computation of the Coulomb Potential):  11
 -----------------------------------------------------------------------
   1 S    3.160000
   1 S    2.090000
   1 S    1.380000
   2 S    1.500000
   2 P    4.000000
   2 P    2.650000
   2 P    1.750000
   3 D    4.000000
   3 D    2.500000
   4 F    3.000000
   5 G    4.000000

 Atom Type   11  (P)
 ==============

 Valence Basis Sets:  13
 -----------------------
   1 S   18.000000
   1 S   13.350000
   2 S    5.600000
   2 S    4.050000
   2 P    7.450000
   2 P    4.100000
   3 S    2.700000
   3 S    1.850000
   3 S    1.300000
   3 P    2.300000
   3 P    1.350000
   3 P    0.850000
   3 D    1.900000

 Charge Fitting Sets (for the computation of the Coulomb Potential):  30
 -----------------------------------------------------------------------
   1 S   36.000000
   1 S   21.450000
   2 S   23.670000
   2 S   15.860000
   3 S   15.600000
   3 S   11.130000
   3 S    7.940000
   4 S    7.490000
   4 S    5.560000
   4 S    4.130000
   5 S    3.810000
   5 S    2.910000
   5 S    2.230000
   5 S    1.700000
   2 P   25.450000
   3 P   18.490000
   4 P   13.440000
   4 P    7.810000
   5 P    5.730000
   5 P    3.510000
   5 P    2.150000
   3 D   19.350000
   4 D   13.230000
   4 D    7.250000
   5 D    5.040000
   5 D    2.930000
   5 D    1.700000
   4 F    5.000000
   4 F    3.000000
   5 G    3.750000


 BAS: List of all Elementary Cartesian Basis Functions
 =====================================================

 The numbering in the list below (to the right of the function characteristics) is referred
 to in print-outs of MO eigenvectors and Mulliken populations in the BAS representation
 (as contrasted to the SFO representation).

 Notes:
 1. The functions are characterized by a polynomial prefactor (powers of x,y,z and r) and
    an exponential decay factor alpha.
 2. Since the basis sets are specific for an atom TYPE, the individual functions occur on
    all atoms of that type.
 3. The word 'Core' in the left margin signals that it is a Core Function (CF) : not a
    degree of freedom in the valence set, but only used to ensure orthogonalization of
    the other valence basis functions on the frozen Core Orbitals.


 (power of) X  Y  Z  R     Alpha  on Atom
            ==========     =====     ==========

 Pd                                   1
                                  ---------------------------------------------------------------------------
            0  0  0  0   306.000      1
            0  0  0  0    76.400      2
            0  0  0  0    45.900      3
            0  0  0  1    53.800      4
            0  0  0  1    19.550      5
            0  0  0  2    10.150      6
            0  0  0  2     6.650      7
            0  0  0  3     6.150      8
            0  0  0  3     3.900      9
            0  0  0  4     2.500     10
            0  0  0  4     1.450     11
            0  0  0  4     0.850     12
            1  0  0  0    29.100     13
            0  1  0  0    29.100     14
            0  0  1  0    29.100     15
            1  0  0  0    18.750     16
            0  1  0  0    18.750     17
            0  0  1  0    18.750     18
            1  0  0  1    11.250     19
            0  1  0  1    11.250     20
            0  0  1  1    11.250     21
            1  0  0  1     8.100     22
            0  1  0  1     8.100     23
            0  0  1  1     8.100     24
            1  0  0  2     5.950     25
            0  1  0  2     5.950     26
            0  0  1  2     5.950     27
            1  0  0  2     3.950     28
            0  1  0  2     3.950     29
            0  0  1  2     3.950     30
            1  0  0  2     2.700     31
            0  1  0  2     2.700     32
            0  0  1  2     2.700     33
            2  0  0  0    17.550     34
            1  1  0  0    17.550     35
            1  0  1  0    17.550     36
            0  2  0  0    17.550     37
            0  1  1  0    17.550     38
            0  0  2  0    17.550     39
            2  0  0  0    10.450     40
            1  1  0  0    10.450     41
            1  0  1  0    10.450     42
            0  2  0  0    10.450     43
            0  1  1  0    10.450     44
            0  0  2  0    10.450     45
            2  0  0  0     6.900     46
            1  1  0  0     6.900     47
            1  0  1  0     6.900     48
            0  2  0  0     6.900     49
            0  1  1  0     6.900     50
            0  0  2  0     6.900     51
            2  0  0  1     4.250     52
            1  1  0  1     4.250     53
            1  0  1  1     4.250     54
            0  2  0  1     4.250     55
            0  1  1  1     4.250     56
            0  0  2  1     4.250     57
            2  0  0  1     2.200     58
            1  1  0  1     2.200     59
            1  0  1  1     2.200     60
            0  2  0  1     2.200     61
            0  1  1  1     2.200     62
            0  0  2  1     2.200     63
            2  0  0  1     1.100     64
            1  1  0  1     1.100     65
            1  0  1  1     1.100     66
            0  2  0  1     1.100     67
            0  1  1  1     1.100     68
            0  0  2  1     1.100     69
            1  0  0  3     1.450     70
            0  1  0  3     1.450     71
            0  0  1  3     1.450     72

 Cl                                   2
                                  ---------------------------------------------------------------------------
            0  0  0  0    20.300     73
            0  0  0  0    15.250     74
            0  0  0  1     6.250     75
            0  0  0  1     4.450     76
            1  0  0  0     8.850     77
            0  1  0  0     8.850     78
            0  0  1  0     8.850     79
            1  0  0  0     5.050     80
            0  1  0  0     5.050     81
            0  0  1  0     5.050     82
            0  0  0  2     3.450     83
            0  0  0  2     2.300     84
            0  0  0  2     1.600     85
            1  0  0  1     3.350     86
            0  1  0  1     3.350     87
            0  0  1  1     3.350     88
            1  0  0  1     2.050     89
            0  1  0  1     2.050     90
            0  0  1  1     2.050     91
            1  0  0  1     1.200     92
            0  1  0  1     1.200     93
            0  0  1  1     1.200     94
            2  0  0  0     2.000     95
            1  1  0  0     2.000     96
            1  0  1  0     2.000     97
            0  2  0  0     2.000     98
            0  1  1  0     2.000     99
            0  0  2  0     2.000    100

 S                                    3
                                  ---------------------------------------------------------------------------
            0  0  0  0    19.400    101
            0  0  0  0    14.350    102
            0  0  0  1     5.900    103
            0  0  0  1     4.250    104
            1  0  0  0     8.050    105
            0  1  0  0     8.050    106
            0  0  1  0     8.050    107
            1  0  0  0     4.550    108
            0  1  0  0     4.550    109
            0  0  1  0     4.550    110
            0  0  0  2     3.450    111
            0  0  0  2     2.250    112
            0  0  0  2     1.500    113
            1  0  0  1     2.650    114
            0  1  0  1     2.650    115
            0  0  1  1     2.650    116
            1  0  0  1     1.600    117
            0  1  0  1     1.600    118
            0  0  1  1     1.600    119
            1  0  0  1     1.000    120
            0  1  0  1     1.000    121
            0  0  1  1     1.000    122
            2  0  0  0     2.100    123
            1  1  0  0     2.100    124
            1  0  1  0     2.100    125
            0  2  0  0     2.100    126
            0  1  1  0     2.100    127
            0  0  2  0     2.100    128

 H                                    4    5    6    7    8    9   10   11
                                  ---------------------------------------------------------------------------
            0  0  0  0     0.690    129  135  141  147  153  159  165  171
            0  0  0  0     0.920    130  136  142  148  154  160  166  172
            0  0  0  0     1.580    131  137  143  149  155  161  167  173
            1  0  0  0     1.250    132  138  144  150  156  162  168  174
            0  1  0  0     1.250    133  139  145  151  157  163  169  175
            0  0  1  0     1.250    134  140  146  152  158  164  170  176

 F                                   12   13   14   15
                                  ---------------------------------------------------------------------------
            0  0  0  0    10.880    177  197  217  237
            0  0  0  0     7.700    178  198  218  238
            0  0  0  1     3.240    179  199  219  239
            0  0  0  1     1.940    180  200  220  240
            0  0  0  1     0.740    181  201  221  241
            1  0  0  0     4.540    182  202  222  242
            0  1  0  0     4.540    183  203  223  243
            0  0  1  0     4.540    184  204  224  244
            1  0  0  0     2.300    185  205  225  245
            0  1  0  0     2.300    186  206  226  246
            0  0  1  0     2.300    187  207  227  247
            1  0  0  0     1.240    188  208  228  248
            0  1  0  0     1.240    189  209  229  249
            0  0  1  0     1.240    190  210  230  250
            2  0  0  0     2.000    191  211  231  251
            1  1  0  0     2.000    192  212  232  252
            1  0  1  0     2.000    193  213  233  253
            0  2  0  0     2.000    194  214  234  254
            0  1  1  0     2.000    195  215  235  255
            0  0  2  0     2.000    196  216  236  256

 O                                   16   17   18
                                  ---------------------------------------------------------------------------
            0  0  0  0     9.800    257  277  297
            0  0  0  0     6.800    258  278  298
            0  0  0  1     7.580    259  279  299
            0  0  0  1     2.880    260  280  300
            0  0  0  1     1.720    261  281  301
            1  0  0  0     4.080    262  282  302
            0  1  0  0     4.080    263  283  303
            0  0  1  0     4.080    264  284  304
            1  0  0  0     2.080    265  285  305
            0  1  0  0     2.080    266  286  306
            0  0  1  0     2.080    267  287  307
            1  0  0  0     1.120    268  288  308
            0  1  0  0     1.120    269  289  309
            0  0  1  0     1.120    270  290  310
            2  0  0  0     2.000    271  291  311
            1  1  0  0     2.000    272  292  312
            1  0  1  0     2.000    273  293  313
            0  2  0  0     2.000    274  294  314
            0  1  1  0     2.000    275  295  315
            0  0  2  0     2.000    276  296  316

 N                                   19
                                  ---------------------------------------------------------------------------
            0  0  0  0     8.740    317
            0  0  0  0     5.900    318
            0  0  0  1     5.150    319
            0  0  0  1     2.500    320
            0  0  0  1     1.500    321
            1  0  0  0     3.680    322
            0  1  0  0     3.680    323
            0  0  1  0     3.680    324
            1  0  0  0     1.880    325
            0  1  0  0     1.880    326
            0  0  1  0     1.880    327
            1  0  0  0     1.000    328
            0  1  0  0     1.000    329
            0  0  1  0     1.000    330
            2  0  0  0     2.200    331
            1  1  0  0     2.200    332
            1  0  1  0     2.200    333
            0  2  0  0     2.200    334
            0  1  1  0     2.200    335
            0  0  2  0     2.200    336

 C                                   20   21   22   23   24   25   26   27   28   29   30   31   32   33
                                  ---------------------------------------------------------------------------
            0  0  0  0     7.680    337  357  377  397  417  437  457  477  497  517  537  557  577  597
            0  0  0  0     5.000    338  358  378  398  418  438  458  478  498  518  538  558  578  598
            0  0  0  1     1.280    339  359  379  399  419  439  459  479  499  519  539  559  579  599
            0  0  0  1     2.100    340  360  380  400  420  440  460  480  500  520  540  560  580  600
            0  0  0  1     4.600    341  361  381  401  421  441  461  481  501  521  541  561  581  601
            1  0  0  0     0.820    342  362  382  402  422  442  462  482  502  522  542  562  582  602
            0  1  0  0     0.820    343  363  383  403  423  443  463  483  503  523  543  563  583  603
            0  0  1  0     0.820    344  364  384  404  424  444  464  484  504  524  544  564  584  604
            1  0  0  0     1.480    345  365  385  405  425  445  465  485  505  525  545  565  585  605
            0  1  0  0     1.480    346  366  386  406  426  446  466  486  506  526  546  566  586  606
            0  0  1  0     1.480    347  367  387  407  427  447  467  487  507  527  547  567  587  607
            1  0  0  0     2.940    348  368  388  408  428  448  468  488  508  528  548  568  588  608
            0  1  0  0     2.940    349  369  389  409  429  449  469  489  509  529  549  569  589  609
            0  0  1  0     2.940    350  370  390  410  430  450  470  490  510  530  550  570  590  610
            2  0  0  0     2.200    351  371  391  411  431  451  471  491  511  531  551  571  591  611
            1  1  0  0     2.200    352  372  392  412  432  452  472  492  512  532  552  572  592  612
            1  0  1  0     2.200    353  373  393  413  433  453  473  493  513  533  553  573  593  613
            0  2  0  0     2.200    354  374  394  414  434  454  474  494  514  534  554  574  594  614
            0  1  1  0     2.200    355  375  395  415  435  455  475  495  515  535  555  575  595  615
            0  0  2  0     2.200    356  376  396  416  436  456  476  496  516  536  556  576  596  616

 C                                   34   35   36   37   38   39   40   41   42   43   44   45   46   47   48
                                     49   50   51   52   53   54   55   56   57   58   59
                                  ---------------------------------------------------------------------------
            0  0  0  0     7.680    617  637  657  677  697  717  737  757  777  797  817  837  857  877  897
                                    917  937  957  977  997 1017 1037 1057 1077 1097 1117
            0  0  0  0     5.000    618  638  658  678  698  718  738  758  778  798  818  838  858  878  898
                                    918  938  958  978  998 1018 1038 1058 1078 1098 1118
            0  0  0  1     1.280    619  639  659  679  699  719  739  759  779  799  819  839  859  879  899
                                    919  939  959  979  999 1019 1039 1059 1079 1099 1119
            0  0  0  1     2.100    620  640  660  680  700  720  740  760  780  800  820  840  860  880  900
                                    920  940  960  980 1000 1020 1040 1060 1080 1100 1120
            0  0  0  1     4.600    621  641  661  681  701  721  741  761  781  801  821  841  861  881  901
                                    921  941  961  981 1001 1021 1041 1061 1081 1101 1121
            1  0  0  0     0.820    622  642  662  682  702  722  742  762  782  802  822  842  862  882  902
                                    922  942  962  982 1002 1022 1042 1062 1082 1102 1122
            0  1  0  0     0.820    623  643  663  683  703  723  743  763  783  803  823  843  863  883  903
                                    923  943  963  983 1003 1023 1043 1063 1083 1103 1123
            0  0  1  0     0.820    624  644  664  684  704  724  744  764  784  804  824  844  864  884  904
                                    924  944  964  984 1004 1024 1044 1064 1084 1104 1124
            1  0  0  0     1.480    625  645  665  685  705  725  745  765  785  805  825  845  865  885  905
                                    925  945  965  985 1005 1025 1045 1065 1085 1105 1125
            0  1  0  0     1.480    626  646  666  686  706  726  746  766  786  806  826  846  866  886  906
                                    926  946  966  986 1006 1026 1046 1066 1086 1106 1126
            0  0  1  0     1.480    627  647  667  687  707  727  747  767  787  807  827  847  867  887  907
                                    927  947  967  987 1007 1027 1047 1067 1087 1107 1127
            1  0  0  0     2.940    628  648  668  688  708  728  748  768  788  808  828  848  868  888  908
                                    928  948  968  988 1008 1028 1048 1068 1088 1108 1128
            0  1  0  0     2.940    629  649  669  689  709  729  749  769  789  809  829  849  869  889  909
                                    929  949  969  989 1009 1029 1049 1069 1089 1109 1129
            0  0  1  0     2.940    630  650  670  690  710  730  750  770  790  810  830  850  870  890  910
                                    930  950  970  990 1010 1030 1050 1070 1090 1110 1130
            2  0  0  0     2.200    631  651  671  691  711  731  751  771  791  811  831  851  871  891  911
                                    931  951  971  991 1011 1031 1051 1071 1091 1111 1131
            1  1  0  0     2.200    632  652  672  692  712  732  752  772  792  812  832  852  872  892  912
                                    932  952  972  992 1012 1032 1052 1072 1092 1112 1132
            1  0  1  0     2.200    633  653  673  693  713  733  753  773  793  813  833  853  873  893  913
                                    933  953  973  993 1013 1033 1053 1073 1093 1113 1133
            0  2  0  0     2.200    634  654  674  694  714  734  754  774  794  814  834  854  874  894  914
                                    934  954  974  994 1014 1034 1054 1074 1094 1114 1134
            0  1  1  0     2.200    635  655  675  695  715  735  755  775  795  815  835  855  875  895  915
                                    935  955  975  995 1015 1035 1055 1075 1095 1115 1135
            0  0  2  0     2.200    636  656  676  696  716  736  756  776  796  816  836  856  876  896  916
                                    936  956  976  996 1016 1036 1056 1076 1096 1116 1136

 H                                   60   61   62   63   64   65   66   67   68   69   70   71   72   73   74
                                     75   76   77   78   79   80   81   82   83
                                  ---------------------------------------------------------------------------
            0  0  0  0     0.690   1137 1143 1149 1155 1161 1167 1173 1179 1185 1191 1197 1203 1209 1215 1221
                                   1227 1233 1239 1245 1251 1257 1263 1269 1275
            0  0  0  0     0.920   1138 1144 1150 1156 1162 1168 1174 1180 1186 1192 1198 1204 1210 1216 1222
                                   1228 1234 1240 1246 1252 1258 1264 1270 1276
            0  0  0  0     1.580   1139 1145 1151 1157 1163 1169 1175 1181 1187 1193 1199 1205 1211 1217 1223
                                   1229 1235 1241 1247 1253 1259 1265 1271 1277
            1  0  0  0     1.250   1140 1146 1152 1158 1164 1170 1176 1182 1188 1194 1200 1206 1212 1218 1224
                                   1230 1236 1242 1248 1254 1260 1266 1272 1278
            0  1  0  0     1.250   1141 1147 1153 1159 1165 1171 1177 1183 1189 1195 1201 1207 1213 1219 1225
                                   1231 1237 1243 1249 1255 1261 1267 1273 1279
            0  0  1  0     1.250   1142 1148 1154 1160 1166 1172 1178 1184 1190 1196 1202 1208 1214 1220 1226
                                   1232 1238 1244 1250 1256 1262 1268 1274 1280

 P                                   84   85
                                  ---------------------------------------------------------------------------
            0  0  0  0    18.000   1281 1309
            0  0  0  0    13.350   1282 1310
            0  0  0  1     5.600   1283 1311
            0  0  0  1     4.050   1284 1312
            1  0  0  0     7.450   1285 1313
            0  1  0  0     7.450   1286 1314
            0  0  1  0     7.450   1287 1315
            1  0  0  0     4.100   1288 1316
            0  1  0  0     4.100   1289 1317
            0  0  1  0     4.100   1290 1318
            0  0  0  2     2.700   1291 1319
            0  0  0  2     1.850   1292 1320
            0  0  0  2     1.300   1293 1321
            1  0  0  1     2.300   1294 1322
            0  1  0  1     2.300   1295 1323
            0  0  1  1     2.300   1296 1324
            1  0  0  1     1.350   1297 1325
            0  1  0  1     1.350   1298 1326
            0  0  1  1     1.350   1299 1327
            1  0  0  1     0.850   1300 1328
            0  1  0  1     0.850   1301 1329
            0  0  1  1     0.850   1302 1330
            2  0  0  0     1.900   1303 1331
            1  1  0  0     1.900   1304 1332
            1  0  1  0     1.900   1305 1333
            0  2  0  0     1.900   1306 1334
            0  1  1  0     1.900   1307 1335
            0  0  2  0     1.900   1308 1336

 Total number of charge fitting functions (nprimf)      6297
 Total number of Cartesian basis functions (naos)       1336
 Total number of Cartesian core functions  (ncos)          0

1
 ***************************************************************************************************



                                              ***********************
                                              *  T E C H N I C A L  *
                                              ***********************
  



 =============================================================
 P A R A L L E L I Z A T I O N  and  V E C T O R I Z A T I O N
 =============================================================
  
 Nr of parallel processes:                               16
 Maximum vector length in NumInt loops:                 128



 =====================
 S C F   U P D A T E S
 =====================
  
 Max. nr. of cycles:                               300
 Convergence criterion:                              0.0000010000
   secondary criterion:                              0.0010000000

 Mix parameter (when DIIS does not apply):           0.2000000000
 Mixed ADIIS+SDIIS will be used                  
    Max number of expansion vectors:                10
    Pure ADIIS when Max([F,P]) is above              0.1000000000
    Pure SDIIS when Max([F,P]) is below              0.0010000000
 Automatic ElectronSmearing (in case of problematic SCF convergence) disabled



 =================
 P R E C I S I O N  ***  (General: NumInt, NeglectFunctionTails, ...)  ***
 =================
  

 NumInt:           Target precision:                 8.0000000000
 -------           Initial precision:                8.0000000000
                   Min. precision (optimization):    8.0000000000

 Neglect Functions:          Basis functions:        0.1000000000E-09
 ------------------          Fit functions:          0.1000000000E-09



 ===========================
 L I N E A R   S C A L I N G
 ===========================
  

 Cut-off radii density fit:                        0.1000000000E-11
 Overlap cut-off criterion AO matrix elements:     0.1000000000E-09
 Cut-offs for Coulomb potential and fitted density:0.1000000000E-11
 Cut-off criterion for Coulomb multipole terms:    0.1000000000E-11
 Progressive Convergence parameter:                 0.000000000    
1
 ***************************************************************************************************



                                            ***************************
                                            *  C O M P U T A T I O N  *
                                            ***************************
  

 Number of elements of the density matrix on this node (used, total):     53704    893116



 ===========================================
 Numerical Integration : Fuzzy Cells (Becke)
 ===========================================
  
 Becke grid quality: VERYGOOD       
  
 Lebedev angular grid order:             min:  13 max:  47
 Nr. of radial points:                   min:  64 max: 183

 Total nr. of points:    2072611
 Nr. of blocks:            16193
 Block length:               128
 Nr. of dummy points:         93


 Test of Precision of the Numerical Integration Grid
 ===================================================

 Integral of the Total Core Density:                   0.00000000000000



 ========================
 Density Fitting (zlmFit)
 ========================
  
 ZlmFit Fit Quality: VERYGOOD       
  
 Max L-expansion:                        min:   9 max:  11
 Nr. of radial interpolation points:     min: 120 max: 400



 ======================
 RI Hartree-Fock Scheme
 ======================
  
 Fit Set Quality     : VERYGOOD
 Threshold Quality   : VERYGOOD
 Integration Quality : VERYGOOD
 Fit Generation Method : AUTO
 Response Quality    : DEFAULT
 Is Range Separated  :  F
 
 RIHartreeFock Dependency: number of modified vectors:          77



 =====
 S C F  ***  ScaSCF  ***
 =====
  
 Initial density matrix is calculated as sum of fragments

 CYCLE    1
 SCF Error: norm([F,P])=      4.685500187174, max([F,P])=      2.184074454344
 orbitals (Q,E):
 ---------------
 A :215...234        ( 2.00    -0.2768)  ( 2.00    -0.2717)  ( 2.00    -0.2709)  ( 2.00    -0.2659)
                     ( 2.00    -0.2631)  ( 2.00    -0.2563)  ( 2.00    -0.2471)  ( 2.00    -0.2413)
                     ( 2.00    -0.2336)  ( 2.00    -0.2225)  ( 0.00    -0.0578)  ( 0.00    -0.0501)
                     ( 0.00    -0.0452)  ( 0.00    -0.0374)  ( 0.00    -0.0322)  ( 0.00    -0.0289)
                     ( 0.00    -0.0267)  ( 0.00    -0.0202)  ( 0.00    -0.0140)  ( 0.00    -0.0106)

 CYCLE    2
   MIX coefficients:  0.8000  0.2000
 SCF Error: norm([F,P])=      0.509779947720, max([F,P])=      0.079094646324
 orbitals (Q,E):
 ---------------
 A :215...225        ( 2.00    -0.2805)  ( 2.00    -0.2764)  ( 2.00    -0.2743)  ( 2.00    -0.2712)
                     ( 2.00    -0.2645)  ( 2.00    -0.2572)  ( 2.00    -0.2514)  ( 2.00    -0.2487)
                     ( 2.00    -0.2300)  ( 2.00    -0.2226)  ( 0.00    -0.0573)

 CYCLE    3
  SDIIS (wt  0.000): -0.3171  1.3171
 A-DIIS (wt  1.000):  0.0000  1.0000
  DIIS coefficients:  0.0000  1.0000
 SCF Error: norm([F,P])=      0.157254321548, max([F,P])=      0.024812780636
 orbitals (Q,E):
 ---------------
 A :215...225        ( 2.00    -0.2815)  ( 2.00    -0.2779)  ( 2.00    -0.2773)  ( 2.00    -0.2723)
                     ( 2.00    -0.2632)  ( 2.00    -0.2599)  ( 2.00    -0.2467)  ( 2.00    -0.2322)
                     ( 2.00    -0.2128)  ( 2.00    -0.2039)  ( 0.00    -0.0549)

 CYCLE    4
  SDIIS (wt  0.000):  0.3514  0.0518  0.5968
 A-DIIS (wt  1.000):  0.0000  0.6873  0.3127
  DIIS coefficients:  0.0000  0.6873  0.3127
 SCF Error: norm([F,P])=      0.313857641366, max([F,P])=      0.046207517365
 orbitals (Q,E):
 ---------------
 A :215...225        ( 2.00    -0.2796)  ( 2.00    -0.2768)  ( 2.00    -0.2748)  ( 2.00    -0.2726)
[...]
     450       15.7368         0.000       
     449       15.6518         0.000       
     448       15.5836         0.000       
     447       15.4986         0.000       
     446       15.4164         0.000       
     445       15.2719         0.000       
     444       15.1389         0.000       
     443       15.0317         0.000       
     442       14.9984         0.000       
     441       14.9579         0.000       
     440       14.8638         0.000       
     439       14.7443         0.000       
     438       14.6581         0.000       
     437       14.6296         0.000       
     436       14.5613         0.000       
     435       14.5165         0.000       
     434       14.4255         0.000       
     433       14.2862         0.000       
     432       14.2158         0.000       
     431       14.1806         0.000       
     430       14.0507         0.000       
     429       13.9932         0.000       
     428       13.8823         0.000       
     427       13.8502         0.000       
     426       13.7271         0.000       
     425       13.5073         0.000       
     424       13.4792         0.000       
     423       13.4503         0.000       
     422       13.3746         0.000       
     421       13.2876         0.000       
     420       13.1679         0.000       
     419       12.9850         0.000       
     418       12.9435         0.000       
     417       12.8563         0.000       
     416       12.7947         0.000       
     415       12.7774         0.000       
     414       12.6385         0.000       
     413       12.6119         0.000       
     412       12.5678         0.000       
     411       12.5443         0.000       
     410       12.4420         0.000       
     409       12.4087         0.000       
     408       12.3917         0.000       
     407       12.2603         0.000       
     406       12.1483         0.000       
     405       12.1434         0.000       
     404       12.0258         0.000       
     403       11.9643         0.000       
     402       11.8967         0.000       
     401       11.8490         0.000       
     400       11.7920         0.000       
     399       11.7189         0.000       
     398       11.6318         0.000       
     397       11.5782         0.000       
     396       11.5435         0.000       
     395       11.4399         0.000       
     394       11.3764         0.000       
     393       11.2558         0.000       
     392       11.2134         0.000       
     391       11.1855         0.000       
     390       11.1717         0.000       
     389       11.1221         0.000       
     388       10.9880         0.000       
     387       10.9492         0.000       
     386       10.8983         0.000       
     385       10.8564         0.000       
     384       10.7960         0.000       
     383       10.7156         0.000       
     382       10.6751         0.000       
     381       10.6426         0.000       
     380       10.5637         0.000       
     379       10.5186         0.000       
     378       10.4596         0.000       
     377       10.3733         0.000       
     376       10.2951         0.000       
     375       10.2496         0.000       
     374       10.1317         0.000       
     373       10.0924         0.000       
     372       10.0159         0.000       
     371        9.9720         0.000       
     370        9.9378         0.000       
     369        9.8451         0.000       
     368        9.7270         0.000       
     367        9.6924         0.000       
     366        9.6567         0.000       
     365        9.6060         0.000       
     364        9.5332         0.000       
     363        9.4533         0.000       
     362        9.3259         0.000       
     361        9.2996         0.000       
     360        9.2078         0.000       
     359        9.1849         0.000       
     358        9.1638         0.000       
     357        9.1174         0.000       
     356        9.0395         0.000       
     355        8.8333         0.000       
     354        8.7790         0.000       
     353        8.7692         0.000       
     352        8.7275         0.000       
     351        8.6350         0.000       
     350        8.5183         0.000       
     349        8.4964         0.000       
     348        8.4195         0.000       
     347        8.3486         0.000       
     346        8.2327         0.000       
     345        8.1404         0.000       
     344        8.0874         0.000       
     343        8.0535         0.000       
     342        7.8624         0.000       
     341        7.8281         0.000       
     340        7.7647         0.000       
     339        7.6575         0.000       
     338        7.6153         0.000       
     337        7.5775         0.000       
     336        7.4658         0.000       
     335        7.4082         0.000       
     334        7.3558         0.000       
     333        7.2002         0.000       
     332        7.1498         0.000       
     331        7.1392         0.000       
     330        7.0175         0.000       
     329        6.9790         0.000       
     328        6.9275         0.000       
     327        6.8792         0.000       
     326        6.8229         0.000       
     325        6.7387         0.000       
     324        6.6362         0.000       
     323        6.5781         0.000       
     322        6.4621         0.000       
     321        6.4362         0.000       
     320        6.3980         0.000       
     319        6.3151         0.000       
     318        6.2389         0.000       
     317        6.1631         0.000       
     316        6.1053         0.000       
     315        5.9940         0.000       
     314        5.9679         0.000       
     313        5.9422         0.000       
     312        5.8821         0.000       
     311        5.7534         0.000       
     310        5.7156         0.000       
     309        5.6683         0.000       
     308        5.6312         0.000       
     307        5.5912         0.000       
     306        5.5099         0.000       
     305        5.4898         0.000       
     304        5.3986         0.000       
     303        5.3866         0.000       
     302        5.2287         0.000       
     301        5.1773         0.000       
     300        5.1453         0.000       
     299        5.0493         0.000       
     298        4.9221         0.000       
     297        4.8303         0.000       
     296        4.8000         0.000       
     295        4.7176         0.000       
     294        4.6615         0.000       
     293        4.5504         0.000       
     292        4.4784         0.000       
     291        4.4219         0.000       
     290        4.3435         0.000       
     289        4.3158         0.000       
     288        4.2307         0.000       
     287        4.1172         0.000       
     286        4.0609         0.000       
     285        3.9668         0.000       
     284        3.8683         0.000       
     283        3.8132         0.000       
     282        3.7380         0.000       
     281        3.6094         0.000       
     280        3.4836         0.000       
     279        3.3375         0.000       
     278        3.3236         0.000       
     277        3.2331         0.000       
     276        3.2024         0.000       
     275        3.1105         0.000       
     274        3.0291         0.000       
     273        2.9698         0.000       
     272        2.9108         0.000       
     271        2.8487         0.000       
     270        2.7830         0.000       
     269        2.7589         0.000       
     268        2.6343         0.000       
     267        2.5858         0.000       
     266        2.5441         0.000       
     265        2.5059         0.000       
     264        2.4129         0.000       
     263        2.3752         0.000       
     262        2.2415         0.000       
     261        2.1869         0.000       
     260        2.1503         0.000       
     259        2.0540         0.000       
     258        1.9659         0.000       
     257        1.8940         0.000       
     256        1.8210         0.000       
     255        1.7562         0.000       
     254        1.6334         0.000       
     253        1.6034         0.000       
     252        1.4558         0.000       
     251        1.3732         0.000       
     250        1.2711         0.000       
     249        1.2008         0.000       
     248        1.0988         0.000       
     247        1.0716         0.000       
     246        0.9875         0.000       
     245        0.9254         0.000       
     244        0.8271         0.000       
     243        0.7244         0.000       
     242        0.6030         0.000       
     241        0.5299         0.000       
     240        0.4194         0.000       
     239        0.3341         0.000       
     238        0.2368         0.000       
     237        0.2085         0.000       
     236        0.0112         0.000       
     235       -0.0622         0.000       
     234       -0.2739         0.000       
     233       -0.4246         0.000       
     232       -0.6387         0.000       
     231       -0.7541         0.000       
     230       -0.8602         0.000       
     229       -0.9568         0.000       
     228       -1.0066         0.000       
     227       -1.2015         0.000       
     226       -1.4132         0.000       
     225       -1.5330         0.000 < LUMO
     224       -5.7475         2.000 < HOMO
     223       -5.9584         2.000       
     222       -6.5060         2.000       
     221       -6.8049         2.000       
     220       -6.9368         2.000       
     219       -7.2657         2.000       
     218       -7.4265         2.000       
     217       -7.5062         2.000       
     216       -7.5760         2.000       
     215       -7.6161         2.000       
     214       -7.7074         2.000       
     213       -7.8529         2.000       
     212       -7.9136         2.000       
     211       -7.9521         2.000       
     210       -7.9867         2.000       
     209       -8.0107         2.000       
     208       -8.1602         2.000       
     207       -8.2761         2.000       
     206       -8.4269         2.000       
     205       -8.5404         2.000       
     204       -8.6484         2.000       
     203       -8.7571         2.000       
     202       -9.1007         2.000       
     201       -9.2565         2.000       
     200       -9.2824         2.000       
     199       -9.3768         2.000       
     198       -9.5645         2.000       
     197       -9.6322         2.000       
     196       -9.7175         2.000       
     195       -9.8731         2.000       
     194       -9.9246         2.000       
     193       -9.9839         2.000       
     192      -10.0492         2.000       
     191      -10.1569         2.000       
     190      -10.1856         2.000       
     189      -10.2426         2.000       
     188      -10.3616         2.000       
     187      -10.4194         2.000       
     186      -10.5281         2.000       
     185      -10.6880         2.000       
     184      -10.7507         2.000       
     183      -10.7881         2.000       
     182      -10.8725         2.000       
     181      -11.0221         2.000       
     180      -11.0757         2.000       
     179      -11.1251         2.000       
     178      -11.1792         2.000       
     177      -11.4380         2.000       
     176      -11.5987         2.000       
     175      -11.6583         2.000       
     174      -11.7660         2.000       
     173      -11.8038         2.000       
     172      -11.8479         2.000       
     171      -12.0300         2.000       
     170      -12.1433         2.000       
     169      -12.1906         2.000       
     168      -12.2111         2.000       
     167      -12.2366         2.000       
     166      -12.3729         2.000       
     165      -12.4673         2.000       
     164      -12.5208         2.000       
     163      -12.5357         2.000       
     162      -12.6793         2.000       
     161      -12.7486         2.000       
     160      -12.8661         2.000       
     159      -12.9162         2.000       
     158      -13.0113         2.000       
     157      -13.0877         2.000       
     156      -13.0942         2.000       
     155      -13.1155         2.000       
     154      -13.1376         2.000       
     153      -13.1900         2.000       
     152      -13.2481         2.000       
     151      -13.3206         2.000       
     150      -13.3670         2.000       
     149      -13.4776         2.000       
     148      -13.4962         2.000       
     147      -13.5864         2.000       
     146      -13.6365         2.000       
     145      -13.6905         2.000       
     144      -13.9587         2.000       
     143      -14.3180         2.000       
     142      -14.4805         2.000       
     141      -14.6088         2.000       
     140      -14.6973         2.000       
     139      -14.8464         2.000       
     138      -14.9310         2.000       
     137      -14.9601         2.000       
     136      -15.2489         2.000       
     135      -15.3656         2.000       
     134      -15.8048         2.000       
     133      -15.9150         2.000       
     132      -15.9971         2.000       
     131      -16.4280         2.000       
     130      -16.5245         2.000       
     129      -16.7571         2.000       
     128      -16.9771         2.000       
     127      -17.0912         2.000       
     126      -17.2107         2.000       
     125      -17.4516         2.000       
     124      -17.4599         2.000       
     123      -17.5780         2.000       
     122      -17.7488         2.000       
     121      -17.8377         2.000       
     120      -18.2310         2.000       
     119      -18.3753         2.000       
     118      -18.6213         2.000       
     117      -19.3068         2.000       
     116      -19.5573         2.000       
     115      -19.8285         2.000       
     114      -20.5851         2.000       
     113      -20.8436         2.000       
     112      -21.1612         2.000       
     111      -21.2117         2.000       
     110      -21.2845         2.000       
     109      -21.4343         2.000       
     108      -21.5811         2.000       
     107      -21.6576         2.000       
     106      -21.6865         2.000       
     105      -21.7355         2.000       
     104      -22.0557         2.000       
     103      -22.2397         2.000       
     102      -23.1888         2.000       
     101      -23.7411         2.000       
     100      -24.1634         2.000       
      99      -24.2982         2.000       
      98      -24.3825         2.000       
      97      -24.5974         2.000       
      96      -24.7151         2.000       
      95      -24.9094         2.000       
      94      -25.7875         2.000       
      93      -27.4976         2.000       
      92      -29.9893         2.000       
      91      -30.5233         2.000       
      90      -34.4038         2.000       
      89      -34.5844         2.000       
      88      -34.8655         2.000       
      87      -35.1252         2.000       
      86      -58.0021         2.000       
      85      -58.7574         2.000       
      84      -58.8669         2.000       
      83      -93.9778         2.000       
      82     -129.7489         2.000       
      81     -129.8298         2.000       
      80     -129.8358         2.000       
      79     -130.2037         2.000       
      78     -130.2709         2.000       
      77     -130.2773         2.000       
      76     -165.2961         2.000       
      75     -165.3056         2.000       
      74     -165.3322         2.000       
      73     -181.6154         2.000       
      72     -182.0575         2.000       
      71     -197.3491         2.000       
      70     -197.3680         2.000       
      69     -197.6288         2.000       
      68     -222.8540         2.000       
      67     -260.9928         2.000       
      66     -278.1346         2.000       
      65     -278.1604         2.000       
      64     -278.2129         2.000       
      63     -278.2494         2.000       
      62     -278.6399         2.000       
      61     -278.6902         2.000       
      60     -278.7102         2.000       
      59     -278.7396         2.000       
      58     -278.7578         2.000       
      57     -278.8889         2.000       
      56     -278.8985         2.000       
      55     -278.9238         2.000       
      54     -278.9927         2.000       
      53     -279.0300         2.000       
      52     -279.0315         2.000       
      51     -279.0836         2.000       
      50     -279.1177         2.000       
      49     -279.1457         2.000       
      48     -279.1506         2.000       
      47     -279.1812         2.000       
      46     -279.2097         2.000       
      45     -279.2180         2.000       
      44     -279.2302         2.000       
      43     -279.2397         2.000       
      42     -279.2606         2.000       
      41     -279.2807         2.000       
      40     -279.3504         2.000       
      39     -279.3713         2.000       
      38     -279.4024         2.000       
      37     -279.5037         2.000       
      36     -279.5261         2.000       
      35     -279.5641         2.000       
      34     -279.6434         2.000       
      33     -279.8337         2.000       
      32     -279.8787         2.000       
      31     -280.3497         2.000       
      30     -280.7677         2.000       
      29     -280.9762         2.000       
      28     -280.9924         2.000       
      27     -281.0470         2.000       
      26     -338.3061         2.000       
      25     -338.3458         2.000       
      24     -338.3968         2.000       
      23     -338.5621         2.000       
      22     -338.5645         2.000       
      21     -391.5628         2.000       
      20     -522.2707         2.000       
      19     -522.2815         2.000       
      18     -523.7842         2.000       
      17     -532.1105         2.000       
      16     -532.4170         2.000       
      15     -532.4967         2.000       
      14     -654.1823         2.000       
      13     -674.8254         2.000       
      12     -675.1880         2.000       
      11     -675.2851         2.000       
      10     -675.2866         2.000       
       9    -2107.6757         2.000       
       8    -2108.1425         2.000       
       7    -2434.6565         2.000       
       6    -2777.2206         2.000       
       5    -3190.3047         2.000       
       4    -3190.4370         2.000       
       3    -3190.4645         2.000       
       2    -3561.3627         2.000       
       1   -24224.4517         2.000       

AMS application finished. Exiting.
NORMAL TERMINATION
     Total cpu time:    2652.08
  Total system time:      19.72
 Total elapsed time:    2675.29
NORMAL TERMINATION
