

 Parallel Execution: Process Information
 ==============================================================================
 Rank   Node Name                              NodeID   MyNodeRank  NodeMaster
    0   eu-g5-014-3                               0          0          0
    1   eu-g5-014-3                               1          0          1
    2   eu-g5-014-3                               0          1         -1
    3   eu-g5-014-3                               1          1         -1
    4   eu-g5-014-3                               0          2         -1
    5   eu-g5-014-3                               1          2         -1
    6   eu-g5-014-3                               0          3         -1
    7   eu-g5-014-3                               1          3         -1
    8   eu-g5-014-3                               0          4         -1
    9   eu-g5-014-3                               1          4         -1
   10   eu-g5-014-3                               0          5         -1
   11   eu-g5-014-3                               1          5         -1
   12   eu-g5-014-3                               0          6         -1
   13   eu-g5-014-3                               1          6         -1
   14   eu-g5-014-3                               0          7         -1
   15   eu-g5-014-3                               1          7         -1
 ==============================================================================


May use up to 30758MB of RAM as shared memory on node 0
May use up to 30758MB of RAM as shared memory on node 1

 *******************************************************************************
 *                                                                             *
 *  --------------------------------                                           *
 *   Amsterdam Modeling Suite (AMS)              2023.101                      *
 *  --------------------------------                                           *
 *                                               r111868 2023-03-31            *
 *                                                                             *
 *                                                                             *
 *                              =================                              *
 *                              |               |                              *
 *                              |     A M S     |                              *
 *                              |               |                              *
 *                              =================                              *
 *                                                                             *
 *                                                                             *
 *   Online information and documentation:  https://www.scm.com/support/       *
 *   E-mail:  support@scm.com   info@scm.com                                   *
 *                                                                             *
 *   Scientific publications using AMS results must be properly referenced     *
 *   See the User Manuals (or the web site) for recommended citations          *
 *   The terms and conditions of the End User License Agreement apply to       *
 *   the use of AMS, https://www.scm.com/license-terms/                        *
 *                                                                             *
 ***********************  x86_64_linux_intel / openmpi  ************************
 
 Licensed to: D-CHAB / ETH site license / Zurich / Switzerland 2025-05-19 12:08:29
 SCM User ID: u7035
  
 AMS 2023.101  RunTime: Jul15-2025 15:10:25  ShM Nodes: 2  Procs: 16

 AMS jobname: EDA_dppBz
 AMS jobid  : 223164455

 Start   directory: /cluster/home/rueppf/phd/Pd_red_el/revision_barriers/dppBz/EDA/
 Results directory: /cluster/home/rueppf/phd/Pd_red_el/revision_barriers/dppBz/EDA/EDA_dppBz.results/
 Scratch directory: /scratch/amstmp_EDA_dppBz_kid0.223164455/


 Communication costs MPI_COMM_WORLD:      7.016 usec per message,   0.0141 usec per 8-byte item
 Communication costs for intra-node:      3.542 usec per message,   0.0127 usec per 8-byte item

 RNG seed: -1796614567 -1722271584 892659468 574772679 -584785666 1152513088 844376037 1481856231



                     *************************************************************************
                     *  ADF 2023.101  RunTime: Jul15-2025 15:10:26  ShM Nodes: 2  Procs: 16  *
                     *************************************************************************
  

       ****************************
       * SINGLE POINT CALCULATION *
       ****************************
 
--------
Geometry
--------
Formula: C44H32ClF4NO3P2PdS
Atoms
  Index Symbol   x (angstrom)   y (angstrom)   z (angstrom)
      1     Pd     0.00276800    -0.04746500    -0.17380300       region=Pdcycle adf.f=Pdcycle
      2     Cl    -0.22218900    -0.14100900    -3.58752700       region=Pdcycle adf.f=Pdcycle
      3      S     1.06038600     2.19087900    -2.18784300       region=Pdcycle adf.f=Pdcycle
      4      P    -1.17526800    -1.66544500     0.85518900       region=Phosphine adf.f=Phosphine
      5      P    -1.87314900     1.26062200     0.42620900       region=Phosphine adf.f=Phosphine
      6      F     5.11075100    -0.62812100     1.27555300       region=Pdcycle adf.f=Pdcycle
      7      F     5.91725600     1.72544300     2.20491100       region=Pdcycle adf.f=Pdcycle
      8      F     4.51391100     3.98573000     1.64417700       region=Pdcycle adf.f=Pdcycle
      9      F     2.25996400     3.84835300     0.21008600       region=Pdcycle adf.f=Pdcycle
     10      O    -0.31082500     2.68900600    -2.27539200       region=Pdcycle adf.f=Pdcycle
     11      O     2.18959400     3.06354300    -2.49745800       region=Pdcycle adf.f=Pdcycle
     12      O     4.50907700    -3.88475000    -2.02106500       region=Pdcycle adf.f=Pdcycle
     13      N     1.27151000     1.45359500    -0.76390000       region=Pdcycle adf.f=Pdcycle
     14      C     1.51024500    -1.30391200    -0.66568000       region=Pdcycle adf.f=Pdcycle
     15      C     1.23814000    -2.52647000    -1.30020500       region=Pdcycle adf.f=Pdcycle
     16      H     0.20391300    -2.84080100    -1.46123700       region=Pdcycle adf.f=Pdcycle
     17      C     2.24074400    -3.37635500    -1.74202100       region=Pdcycle adf.f=Pdcycle
     18      H     2.01177300    -4.32731500    -2.22708000       region=Pdcycle adf.f=Pdcycle
     19      C     3.58036200    -3.01462700    -1.56429300       region=Pdcycle adf.f=Pdcycle
     20      C     5.86079100    -3.57009200    -1.84924700       region=Pdcycle adf.f=Pdcycle
     21      H     6.14218000    -2.64647600    -2.38642800       region=Pdcycle adf.f=Pdcycle
     22      H     6.43581000    -4.40812100    -2.26397200       region=Pdcycle adf.f=Pdcycle
     23      H     6.12385200    -3.44823200    -0.78318700       region=Pdcycle adf.f=Pdcycle
     24      C     3.88055500    -1.80418200    -0.94543800       region=Pdcycle adf.f=Pdcycle
     25      H     4.91750400    -1.50179000    -0.81821200       region=Pdcycle adf.f=Pdcycle
     26      C     2.85832100    -0.94786700    -0.48539000       region=Pdcycle adf.f=Pdcycle
     27      C     3.25538000     0.33728700     0.13383600       region=Pdcycle adf.f=Pdcycle
     28      C     4.39287800     0.44554300     0.94077100       region=Pdcycle adf.f=Pdcycle
     29      C     4.83360400     1.66554900     1.44419700       region=Pdcycle adf.f=Pdcycle
     30      C     4.11705800     2.82104600     1.15620900       region=Pdcycle adf.f=Pdcycle
     31      C     2.95562800     2.73649200     0.39642400       region=Pdcycle adf.f=Pdcycle
     32      C     2.50355700     1.51248200    -0.11530100       region=Pdcycle adf.f=Pdcycle
     33      C     1.20305600     0.89219100    -3.45365700       region=Pdcycle adf.f=Pdcycle
     34      H     1.34283400     1.42820100    -4.40115300       region=Pdcycle adf.f=Pdcycle
     35      H     2.08085900     0.27962800    -3.20900800       region=Pdcycle adf.f=Pdcycle
     36      C    -2.37558300     0.52155400     2.03324700       region=Phosphine adf.f=Phosphine
     37      C    -2.01958700    -0.82413900     2.24818300       region=Phosphine adf.f=Phosphine
     38      C    -1.77007600     3.03938600     0.74902200       region=Phosphine adf.f=Phosphine
     39      C    -2.83782800     3.90800200     0.50014200       region=Phosphine adf.f=Phosphine
     40      H    -3.76719300     3.52341200     0.07315700       region=Phosphine adf.f=Phosphine
     41      C    -2.70277500     5.26537700     0.78316500       region=Phosphine adf.f=Phosphine
     42      H    -3.53406300     5.94585100     0.58427300       region=Phosphine adf.f=Phosphine
     43      C    -1.50596600     5.75607200     1.30513200       region=Phosphine adf.f=Phosphine
     44      H    -1.39936400     6.82343700     1.51307600       region=Phosphine adf.f=Phosphine
     45      C    -0.43893100     4.89094100     1.54455500       region=Phosphine adf.f=Phosphine
     46      H     0.51057500     5.27413400     1.92350600       region=Phosphine adf.f=Phosphine
     47      C    -0.56908400     3.53393700     1.26659000       region=Phosphine adf.f=Phosphine
     48      H     0.27184700     2.85592200     1.42117500       region=Phosphine adf.f=Phosphine
     49      C    -3.31753200     1.01551300    -0.65693000       region=Phosphine adf.f=Phosphine
     50      C    -3.17029700     1.34999900    -2.01090600       region=Phosphine adf.f=Phosphine
     51      H    -2.23185500     1.79001200    -2.36136300       region=Phosphine adf.f=Phosphine
     52      C    -4.21750900     1.10836400    -2.89608500       region=Phosphine adf.f=Phosphine
     53      H    -4.09925700     1.37031100    -3.95020400       region=Phosphine adf.f=Phosphine
     54      C    -5.40285600     0.52626800    -2.44569900       region=Phosphine adf.f=Phosphine
     55      H    -6.21758900     0.33006300    -3.14713100       region=Phosphine adf.f=Phosphine
     56      C    -5.54603500     0.19002000    -1.10074300       region=Phosphine adf.f=Phosphine
     57      H    -6.46914800    -0.27294800    -0.74455900       region=Phosphine adf.f=Phosphine
     58      C    -4.50777100     0.43604400    -0.20460800       region=Phosphine adf.f=Phosphine
     59      H    -4.62058800     0.16112600     0.84635800       region=Phosphine adf.f=Phosphine
     60      C    -2.55330200    -2.36990800    -0.10662500       region=Phosphine adf.f=Phosphine
     61      C    -2.56894500    -2.16505400    -1.49010700       region=Phosphine adf.f=Phosphine
     62      H    -1.75411900    -1.60826200    -1.95917800       region=Phosphine adf.f=Phosphine
     63      C    -3.63648400    -2.63233400    -2.25287700       region=Phosphine adf.f=Phosphine
     64      H    -3.64835100    -2.45422100    -3.33003600       region=Phosphine adf.f=Phosphine
     65      C    -4.69172600    -3.30273600    -1.63817500       region=Phosphine adf.f=Phosphine
     66      H    -5.53253900    -3.66222400    -2.23612100       region=Phosphine adf.f=Phosphine
     67      C    -4.68510700    -3.50143100    -0.25686300       region=Phosphine adf.f=Phosphine
     68      H    -5.51842500    -4.01611300     0.22719300       region=Phosphine adf.f=Phosphine
     69      C    -3.62245000    -3.03203500     0.51007100       region=Phosphine adf.f=Phosphine
     70      H    -3.63509800    -3.16558600     1.59474100       region=Phosphine adf.f=Phosphine
     71      C    -0.25846800    -3.04897100     1.59205500       region=Phosphine adf.f=Phosphine
     72      C     0.92592600    -2.73418500     2.27234900       region=Phosphine adf.f=Phosphine
     73      H     1.25110300    -1.69253700     2.34110900       region=Phosphine adf.f=Phosphine
     74      C     1.70496300    -3.74725700     2.81818500       region=Phosphine adf.f=Phosphine
     75      H     2.63255900    -3.49634400     3.33718900       region=Phosphine adf.f=Phosphine
     76      C     1.31528800    -5.08066700     2.67774400       region=Phosphine adf.f=Phosphine
     77      H     1.93607900    -5.87711000     3.09476300       region=Phosphine adf.f=Phosphine
     78      C     0.14504800    -5.39696400     1.99230100       region=Phosphine adf.f=Phosphine
     79      H    -0.15448800    -6.44034400     1.86992200       region=Phosphine adf.f=Phosphine
     80      C    -0.64381000    -4.38385900     1.44675600       region=Phosphine adf.f=Phosphine
     81      H    -1.54977100    -4.63724900     0.89234900       region=Phosphine adf.f=Phosphine
     82      C    -2.31984200    -1.44454800     3.46164600       region=Phosphine adf.f=Phosphine
     83      C    -3.03711600     1.22736500     3.03933600       region=Phosphine adf.f=Phosphine
     84      C    -3.33924500     0.60118300     4.24896400       region=Phosphine adf.f=Phosphine
     85      C    -2.97964300    -0.72903900     4.46105300       region=Phosphine adf.f=Phosphine
     86      H    -2.01475500    -2.48034600     3.63319700       region=Phosphine adf.f=Phosphine
     87      H    -3.20215000    -1.21049600     5.41612900       region=Phosphine adf.f=Phosphine
     88      H    -3.29719400     2.27707500     2.88055300       region=Phosphine adf.f=Phosphine
     89      H    -3.84674500     1.16209300     5.03718900       region=Phosphine adf.f=Phosphine
 
Total System Charge             0.00000
Bonding info available!
 
 
----------------
ADF Engine Input
----------------
 
 Basis
 Type TZP
 Core None
 End
 Fragments
 Phosphine ./dppBz.ligand.results/adf.rkf
 Pdcycle ./dppBz.Pdcycle.results/adf.rkf
 End
 XC
 Hybrid PBE0
 DISPERSION Grimme3 BJDAMP
 End
 NumericalQuality VeryGood
 

 Title: *** (NO TITLE) ***

 *** adf ***



 ===========================
 A T T A C H E D   F I L E S
 ===========================
  



 ===============================
 M O D E L   P A R A M E T E R S
 ===============================
  
 DENSITY FUNCTIONAL POTENTIAL (scf)
    Hybrid:                            PBE0                                    == Not Default ==

 SPIN  (restricted / unrestr.)
    Molecule:                          Restricted                               
    Fragments:                         Restricted                               

 OTHER ASPECTS
    Relativistic Corrections:          scalar (ZORA,MAPA)                       

    Nuclear Charge Density Model:      Point Charge Nuclei                      
    Core Treatment:                    Frozen Orbital(s)                        

    Hyperfine or Zeeman Interaction:   ---                                      

 Settings for Grimme D3 dispersion correction

      damping                        BJ
      s6                          1.000
      s8                          1.218
      a1                          0.414
      a2                          4.859

 Other (technical) parameters

      alpha                      14.000
      version                         4
 


 Fragment File(s)
 ----------------
 Pdcycle:
         file : ./dppBz.Pdcycle.results/adf.rkf
         jobid: 155264513
         title: *** adf ***
 Phosphine:
         file : ./dppBz.ligand.results/adf.rkf
         jobid: 1896425176
         title: *** adf ***



 ===============
 G E O M E T R Y  ***  3D  Molecule  ***
 ===============
  

 ATOMS
 =====                            X Y Z                    CHARGE
                                (Angstrom)             Nucl     +Core       At.Mass
                       --------------------------    ----------------       -------
    1  Pd              0.0028   -0.0475   -0.1738     46.00     46.00      105.9035
    2  Cl             -0.2222   -0.1410   -3.5875     17.00     17.00       34.9689
    3  S               1.0604    2.1909   -2.1878     16.00     16.00       31.9721
    4  P              -1.1753   -1.6654    0.8552     15.00     15.00       30.9738
    5  P              -1.8731    1.2606    0.4262     15.00     15.00       30.9738
    6  F               5.1108   -0.6281    1.2756      9.00      9.00       18.9984
    7  F               5.9173    1.7254    2.2049      9.00      9.00       18.9984
    8  F               4.5139    3.9857    1.6442      9.00      9.00       18.9984
    9  F               2.2600    3.8484    0.2101      9.00      9.00       18.9984
   10  O              -0.3108    2.6890   -2.2754      8.00      8.00       15.9949
   11  O               2.1896    3.0635   -2.4975      8.00      8.00       15.9949
   12  O               4.5091   -3.8847   -2.0211      8.00      8.00       15.9949
   13  N               1.2715    1.4536   -0.7639      7.00      7.00       14.0031
   14  C               1.5102   -1.3039   -0.6657      6.00      6.00       12.0000
   15  C               1.2381   -2.5265   -1.3002      6.00      6.00       12.0000
   16  H               0.2039   -2.8408   -1.4612      1.00      1.00        1.0078
   17  C               2.2407   -3.3764   -1.7420      6.00      6.00       12.0000
   18  H               2.0118   -4.3273   -2.2271      1.00      1.00        1.0078
   19  C               3.5804   -3.0146   -1.5643      6.00      6.00       12.0000
   20  C               5.8608   -3.5701   -1.8492      6.00      6.00       12.0000
   21  H               6.1422   -2.6465   -2.3864      1.00      1.00        1.0078
   22  H               6.4358   -4.4081   -2.2640      1.00      1.00        1.0078
   23  H               6.1239   -3.4482   -0.7832      1.00      1.00        1.0078
   24  C               3.8806   -1.8042   -0.9454      6.00      6.00       12.0000
   25  H               4.9175   -1.5018   -0.8182      1.00      1.00        1.0078
   26  C               2.8583   -0.9479   -0.4854      6.00      6.00       12.0000
   27  C               3.2554    0.3373    0.1338      6.00      6.00       12.0000
   28  C               4.3929    0.4455    0.9408      6.00      6.00       12.0000
   29  C               4.8336    1.6655    1.4442      6.00      6.00       12.0000
   30  C               4.1171    2.8210    1.1562      6.00      6.00       12.0000
   31  C               2.9556    2.7365    0.3964      6.00      6.00       12.0000
   32  C               2.5036    1.5125   -0.1153      6.00      6.00       12.0000
   33  C               1.2031    0.8922   -3.4537      6.00      6.00       12.0000
   34  H               1.3428    1.4282   -4.4012      1.00      1.00        1.0078
   35  H               2.0809    0.2796   -3.2090      1.00      1.00        1.0078
   36  C              -2.3756    0.5216    2.0332      6.00      6.00       12.0000
   37  C              -2.0196   -0.8241    2.2482      6.00      6.00       12.0000
   38  C              -1.7701    3.0394    0.7490      6.00      6.00       12.0000
   39  C              -2.8378    3.9080    0.5001      6.00      6.00       12.0000
   40  H              -3.7672    3.5234    0.0732      1.00      1.00        1.0078
   41  C              -2.7028    5.2654    0.7832      6.00      6.00       12.0000
   42  H              -3.5341    5.9459    0.5843      1.00      1.00        1.0078
   43  C              -1.5060    5.7561    1.3051      6.00      6.00       12.0000
   44  H              -1.3994    6.8234    1.5131      1.00      1.00        1.0078
   45  C              -0.4389    4.8909    1.5446      6.00      6.00       12.0000
   46  H               0.5106    5.2741    1.9235      1.00      1.00        1.0078
   47  C              -0.5691    3.5339    1.2666      6.00      6.00       12.0000
   48  H               0.2718    2.8559    1.4212      1.00      1.00        1.0078
   49  C              -3.3175    1.0155   -0.6569      6.00      6.00       12.0000
   50  C              -3.1703    1.3500   -2.0109      6.00      6.00       12.0000
   51  H              -2.2319    1.7900   -2.3614      1.00      1.00        1.0078
   52  C              -4.2175    1.1084   -2.8961      6.00      6.00       12.0000
   53  H              -4.0993    1.3703   -3.9502      1.00      1.00        1.0078
   54  C              -5.4029    0.5263   -2.4457      6.00      6.00       12.0000
   55  H              -6.2176    0.3301   -3.1471      1.00      1.00        1.0078
   56  C              -5.5460    0.1900   -1.1007      6.00      6.00       12.0000
   57  H              -6.4691   -0.2729   -0.7446      1.00      1.00        1.0078
   58  C              -4.5078    0.4360   -0.2046      6.00      6.00       12.0000
   59  H              -4.6206    0.1611    0.8464      1.00      1.00        1.0078
   60  C              -2.5533   -2.3699   -0.1066      6.00      6.00       12.0000
   61  C              -2.5689   -2.1651   -1.4901      6.00      6.00       12.0000
   62  H              -1.7541   -1.6083   -1.9592      1.00      1.00        1.0078
   63  C              -3.6365   -2.6323   -2.2529      6.00      6.00       12.0000
   64  H              -3.6484   -2.4542   -3.3300      1.00      1.00        1.0078
   65  C              -4.6917   -3.3027   -1.6382      6.00      6.00       12.0000
   66  H              -5.5325   -3.6622   -2.2361      1.00      1.00        1.0078
   67  C              -4.6851   -3.5014   -0.2569      6.00      6.00       12.0000
   68  H              -5.5184   -4.0161    0.2272      1.00      1.00        1.0078
   69  C              -3.6225   -3.0320    0.5101      6.00      6.00       12.0000
   70  H              -3.6351   -3.1656    1.5947      1.00      1.00        1.0078
   71  C              -0.2585   -3.0490    1.5921      6.00      6.00       12.0000
   72  C               0.9259   -2.7342    2.2723      6.00      6.00       12.0000
   73  H               1.2511   -1.6925    2.3411      1.00      1.00        1.0078
   74  C               1.7050   -3.7473    2.8182      6.00      6.00       12.0000
   75  H               2.6326   -3.4963    3.3372      1.00      1.00        1.0078
   76  C               1.3153   -5.0807    2.6777      6.00      6.00       12.0000
   77  H               1.9361   -5.8771    3.0948      1.00      1.00        1.0078
   78  C               0.1450   -5.3970    1.9923      6.00      6.00       12.0000
   79  H              -0.1545   -6.4403    1.8699      1.00      1.00        1.0078
   80  C              -0.6438   -4.3839    1.4468      6.00      6.00       12.0000
   81  H              -1.5498   -4.6372    0.8923      1.00      1.00        1.0078
   82  C              -2.3198   -1.4445    3.4616      6.00      6.00       12.0000
   83  C              -3.0371    1.2274    3.0393      6.00      6.00       12.0000
   84  C              -3.3392    0.6012    4.2490      6.00      6.00       12.0000
   85  C              -2.9796   -0.7290    4.4611      6.00      6.00       12.0000
   86  H              -2.0148   -2.4803    3.6332      1.00      1.00        1.0078
   87  H              -3.2022   -1.2105    5.4161      1.00      1.00        1.0078
   88  H              -3.2972    2.2771    2.8806      1.00      1.00        1.0078
   89  H              -3.8467    1.1621    5.0372      1.00      1.00        1.0078


 FRAGMENTS
 =========                                     Atoms in this Fragment     Cart. coord.s (Angstrom)
                                               -------------------------------------------------------
    1  Pdcycle                                           1  Pd           0.0028   -0.0475   -0.1738
                                                         2  Cl          -0.2222   -0.1410   -3.5875
                                                         3  S            1.0604    2.1909   -2.1878
                                                         6  F            5.1108   -0.6281    1.2756
                                                         7  F            5.9173    1.7254    2.2049
                                                         8  F            4.5139    3.9857    1.6442
                                                         9  F            2.2600    3.8484    0.2101
                                                        10  O           -0.3108    2.6890   -2.2754
                                                        11  O            2.1896    3.0635   -2.4975
                                                        12  O            4.5091   -3.8847   -2.0211
                                                        13  N            1.2715    1.4536   -0.7639
                                                        14  C            1.5102   -1.3039   -0.6657
                                                        15  C            1.2381   -2.5265   -1.3002
                                                        17  C            2.2407   -3.3764   -1.7420
                                                        19  C            3.5804   -3.0146   -1.5643
                                                        20  C            5.8608   -3.5701   -1.8492
                                                        24  C            3.8806   -1.8042   -0.9454
                                                        26  C            2.8583   -0.9479   -0.4854
                                                        27  C            3.2554    0.3373    0.1338
                                                        28  C            4.3929    0.4455    0.9408
                                                        29  C            4.8336    1.6655    1.4442
                                                        30  C            4.1171    2.8210    1.1562
                                                        31  C            2.9556    2.7365    0.3964
                                                        32  C            2.5036    1.5125   -0.1153
                                                        33  C            1.2031    0.8922   -3.4537
                                                        16  H            0.2039   -2.8408   -1.4612
                                                        18  H            2.0118   -4.3273   -2.2271
                                                        21  H            6.1422   -2.6465   -2.3864
                                                        22  H            6.4358   -4.4081   -2.2640
                                                        23  H            6.1239   -3.4482   -0.7832
                                                        25  H            4.9175   -1.5018   -0.8182
                                                        34  H            1.3428    1.4282   -4.4012
                                                        35  H            2.0809    0.2796   -3.2090
    2  Phosphine                                         4  P           -1.1753   -1.6654    0.8552
                                                         5  P           -1.8731    1.2606    0.4262
                                                        36  C           -2.3756    0.5216    2.0332
                                                        37  C           -2.0196   -0.8241    2.2482
                                                        38  C           -1.7701    3.0394    0.7490
                                                        39  C           -2.8378    3.9080    0.5001
                                                        41  C           -2.7028    5.2654    0.7832
                                                        43  C           -1.5060    5.7561    1.3051
                                                        45  C           -0.4389    4.8909    1.5446
                                                        47  C           -0.5691    3.5339    1.2666
                                                        49  C           -3.3175    1.0155   -0.6569
                                                        50  C           -3.1703    1.3500   -2.0109
                                                        52  C           -4.2175    1.1084   -2.8961
                                                        54  C           -5.4029    0.5263   -2.4457
                                                        56  C           -5.5460    0.1900   -1.1007
                                                        58  C           -4.5078    0.4360   -0.2046
                                                        60  C           -2.5533   -2.3699   -0.1066
                                                        61  C           -2.5689   -2.1651   -1.4901
                                                        63  C           -3.6365   -2.6323   -2.2529
                                                        65  C           -4.6917   -3.3027   -1.6382
                                                        67  C           -4.6851   -3.5014   -0.2569
                                                        69  C           -3.6225   -3.0320    0.5101
                                                        71  C           -0.2585   -3.0490    1.5921
                                                        72  C            0.9259   -2.7342    2.2723
                                                        74  C            1.7050   -3.7473    2.8182
                                                        76  C            1.3153   -5.0807    2.6777
                                                        78  C            0.1450   -5.3970    1.9923
                                                        80  C           -0.6438   -4.3839    1.4468
                                                        82  C           -2.3198   -1.4445    3.4616
                                                        83  C           -3.0371    1.2274    3.0393
                                                        84  C           -3.3392    0.6012    4.2490
                                                        85  C           -2.9796   -0.7290    4.4611
                                                        40  H           -3.7672    3.5234    0.0732
                                                        42  H           -3.5341    5.9459    0.5843
                                                        44  H           -1.3994    6.8234    1.5131
                                                        46  H            0.5106    5.2741    1.9235
                                                        48  H            0.2718    2.8559    1.4212
                                                        51  H           -2.2319    1.7900   -2.3614
                                                        53  H           -4.0993    1.3703   -3.9502
                                                        55  H           -6.2176    0.3301   -3.1471
                                                        57  H           -6.4691   -0.2729   -0.7446
                                                        59  H           -4.6206    0.1611    0.8464
                                                        62  H           -1.7541   -1.6083   -1.9592
                                                        64  H           -3.6484   -2.4542   -3.3300
                                                        66  H           -5.5325   -3.6622   -2.2361
                                                        68  H           -5.5184   -4.0161    0.2272
                                                        70  H           -3.6351   -3.1656    1.5947
                                                        73  H            1.2511   -1.6925    2.3411
                                                        75  H            2.6326   -3.4963    3.3372
                                                        77  H            1.9361   -5.8771    3.0948
                                                        79  H           -0.1545   -6.4403    1.8699
                                                        81  H           -1.5498   -4.6372    0.8923
                                                        86  H           -2.0148   -2.4803    3.6332
                                                        87  H           -3.2022   -1.2105    5.4161
                                                        88  H           -3.2972    2.2771    2.8806
                                                        89  H           -3.8467    1.1621    5.0372



 =====================================
 S Y M M E T R Y ,   E L E C T R O N S
 =====================================
  
 Symmetry: NOSYM

 Irreducible Representations, including subspecies
 -------------------------------------------------
 A


 Configuration of Valence Electrons
 ==================================
 ( determined in the SCF procedure )

 Total:   472

 Net Charge: 0 (Nuclei minus Electrons)

 Aufbau principle for MO occupations will be applied through SCF cycle no.     150
 Thereafter, the program will assign electrons to MOs that are spatially
 similar to the occupied MOs in a "reference" cycle ("KeepOrbitals").
 The reference cycle is always the PREVIOUS cycle: it will evolve with
 the SCF procedure.
1
 ***************************************************************************************************



                                      ****************************************
                                      *  B U I L D : (Fragments, Functions)  *
                                      ****************************************
  

 The individual fragments are copies of the corresponding 'Master' fragments defined on the fragment files.
 However, they may have been rotated (and translated) with respect to the Master. The local coordinate axes
 of each fragment (which define for instance the spatial orientation in the current molecule of a fragment
 P:x orbital) are not necessarily those of the molecule.
 The local frame (if different from the molecular one) is printed to enable an interpretation of the expan-
 sion of an MO in Fragment Orbitals.



                                           *****************************
                                           *  Fragment Type : Pdcycle  *
                                           *****************************
  

 Fragment no.    1   (in the list of all fragments)
 -----------------
 The local coordinate frame is identical to the molecular frame.

 Check Atomic Coordinates:

                  Master (on file)          After Computed Tranformation               As specified on Input
           ----------------------------     ----------------------------     ---------------------------------
     1)     0.00277  -0.04746  -0.17380      0.00277  -0.04746  -0.17380       1   0.00277  -0.04746  -0.17380
     2)    -0.22219  -0.14101  -3.58753     -0.22219  -0.14101  -3.58753       2  -0.22219  -0.14101  -3.58753
     3)     1.06039   2.19088  -2.18784      1.06039   2.19088  -2.18784       3   1.06039   2.19088  -2.18784
     4)     5.11075  -0.62812   1.27555      5.11075  -0.62812   1.27555       6   5.11075  -0.62812   1.27555
     5)     5.91726   1.72544   2.20491      5.91726   1.72544   2.20491       7   5.91726   1.72544   2.20491
     6)     4.51391   3.98573   1.64418      4.51391   3.98573   1.64418       8   4.51391   3.98573   1.64418
     7)     2.25996   3.84835   0.21009      2.25996   3.84835   0.21009       9   2.25996   3.84835   0.21009
     8)    -0.31083   2.68901  -2.27539     -0.31083   2.68901  -2.27539      10  -0.31083   2.68901  -2.27539
     9)     2.18959   3.06354  -2.49746      2.18959   3.06354  -2.49746      11   2.18959   3.06354  -2.49746
    10)     4.50908  -3.88475  -2.02107      4.50908  -3.88475  -2.02107      12   4.50908  -3.88475  -2.02107
    11)     1.27151   1.45359  -0.76390      1.27151   1.45359  -0.76390      13   1.27151   1.45359  -0.76390
    12)     1.51025  -1.30391  -0.66568      1.51025  -1.30391  -0.66568      14   1.51025  -1.30391  -0.66568
    13)     1.23814  -2.52647  -1.30021      1.23814  -2.52647  -1.30021      15   1.23814  -2.52647  -1.30021
    14)     2.24074  -3.37636  -1.74202      2.24074  -3.37636  -1.74202      17   2.24074  -3.37636  -1.74202
    15)     3.58036  -3.01463  -1.56429      3.58036  -3.01463  -1.56429      19   3.58036  -3.01463  -1.56429
    16)     5.86079  -3.57009  -1.84925      5.86079  -3.57009  -1.84925      20   5.86079  -3.57009  -1.84925
    17)     3.88056  -1.80418  -0.94544      3.88056  -1.80418  -0.94544      24   3.88056  -1.80418  -0.94544
    18)     2.85832  -0.94787  -0.48539      2.85832  -0.94787  -0.48539      26   2.85832  -0.94787  -0.48539
    19)     3.25538   0.33729   0.13384      3.25538   0.33729   0.13384      27   3.25538   0.33729   0.13384
    20)     4.39288   0.44554   0.94077      4.39288   0.44554   0.94077      28   4.39288   0.44554   0.94077
    21)     4.83360   1.66555   1.44420      4.83360   1.66555   1.44420      29   4.83360   1.66555   1.44420
    22)     4.11706   2.82105   1.15621      4.11706   2.82105   1.15621      30   4.11706   2.82105   1.15621
    23)     2.95563   2.73649   0.39642      2.95563   2.73649   0.39642      31   2.95563   2.73649   0.39642
    24)     2.50356   1.51248  -0.11530      2.50356   1.51248  -0.11530      32   2.50356   1.51248  -0.11530
    25)     1.20306   0.89219  -3.45366      1.20306   0.89219  -3.45366      33   1.20306   0.89219  -3.45366
    26)     0.20391  -2.84080  -1.46124      0.20391  -2.84080  -1.46124      16   0.20391  -2.84080  -1.46124
    27)     2.01177  -4.32731  -2.22708      2.01177  -4.32731  -2.22708      18   2.01177  -4.32731  -2.22708
    28)     6.14218  -2.64648  -2.38643      6.14218  -2.64648  -2.38643      21   6.14218  -2.64648  -2.38643
    29)     6.43581  -4.40812  -2.26397      6.43581  -4.40812  -2.26397      22   6.43581  -4.40812  -2.26397
    30)     6.12385  -3.44823  -0.78319      6.12385  -3.44823  -0.78319      23   6.12385  -3.44823  -0.78319
    31)     4.91750  -1.50179  -0.81821      4.91750  -1.50179  -0.81821      25   4.91750  -1.50179  -0.81821
    32)     1.34283   1.42820  -4.40115      1.34283   1.42820  -4.40115      34   1.34283   1.42820  -4.40115
    33)     2.08086   0.27963  -3.20901      2.08086   0.27963  -3.20901      35   2.08086   0.27963  -3.20901



                                          *******************************
                                          *  Fragment Type : Phosphine  *
                                          *******************************
  

 Fragment no.    2   (in the list of all fragments)
 -----------------
 The local coordinate frame is identical to the molecular frame.

 Check Atomic Coordinates:

                  Master (on file)          After Computed Tranformation               As specified on Input
           ----------------------------     ----------------------------     ---------------------------------
     1)    -1.17527  -1.66545   0.85519     -1.17527  -1.66545   0.85519       4  -1.17527  -1.66545   0.85519
     2)    -1.87315   1.26062   0.42621     -1.87315   1.26062   0.42621       5  -1.87315   1.26062   0.42621
     3)    -2.37558   0.52155   2.03325     -2.37558   0.52155   2.03325      36  -2.37558   0.52155   2.03325
     4)    -2.01959  -0.82414   2.24818     -2.01959  -0.82414   2.24818      37  -2.01959  -0.82414   2.24818
     5)    -1.77008   3.03939   0.74902     -1.77008   3.03939   0.74902      38  -1.77008   3.03939   0.74902
     6)    -2.83783   3.90800   0.50014     -2.83783   3.90800   0.50014      39  -2.83783   3.90800   0.50014
     7)    -2.70277   5.26538   0.78317     -2.70277   5.26538   0.78317      41  -2.70277   5.26538   0.78317
     8)    -1.50597   5.75607   1.30513     -1.50597   5.75607   1.30513      43  -1.50597   5.75607   1.30513
     9)    -0.43893   4.89094   1.54455     -0.43893   4.89094   1.54455      45  -0.43893   4.89094   1.54455
    10)    -0.56908   3.53394   1.26659     -0.56908   3.53394   1.26659      47  -0.56908   3.53394   1.26659
    11)    -3.31753   1.01551  -0.65693     -3.31753   1.01551  -0.65693      49  -3.31753   1.01551  -0.65693
    12)    -3.17030   1.35000  -2.01091     -3.17030   1.35000  -2.01091      50  -3.17030   1.35000  -2.01091
    13)    -4.21751   1.10836  -2.89608     -4.21751   1.10836  -2.89608      52  -4.21751   1.10836  -2.89608
    14)    -5.40286   0.52627  -2.44570     -5.40286   0.52627  -2.44570      54  -5.40286   0.52627  -2.44570
    15)    -5.54603   0.19002  -1.10074     -5.54603   0.19002  -1.10074      56  -5.54603   0.19002  -1.10074
    16)    -4.50777   0.43604  -0.20461     -4.50777   0.43604  -0.20461      58  -4.50777   0.43604  -0.20461
    17)    -2.55330  -2.36991  -0.10662     -2.55330  -2.36991  -0.10662      60  -2.55330  -2.36991  -0.10662
    18)    -2.56894  -2.16505  -1.49011     -2.56894  -2.16505  -1.49011      61  -2.56894  -2.16505  -1.49011
    19)    -3.63648  -2.63233  -2.25288     -3.63648  -2.63233  -2.25288      63  -3.63648  -2.63233  -2.25288
    20)    -4.69173  -3.30274  -1.63817     -4.69173  -3.30274  -1.63817      65  -4.69173  -3.30274  -1.63817
    21)    -4.68511  -3.50143  -0.25686     -4.68511  -3.50143  -0.25686      67  -4.68511  -3.50143  -0.25686
    22)    -3.62245  -3.03204   0.51007     -3.62245  -3.03204   0.51007      69  -3.62245  -3.03204   0.51007
    23)    -0.25847  -3.04897   1.59206     -0.25847  -3.04897   1.59206      71  -0.25847  -3.04897   1.59206
    24)     0.92593  -2.73419   2.27235      0.92593  -2.73419   2.27235      72   0.92593  -2.73419   2.27235
    25)     1.70496  -3.74726   2.81819      1.70496  -3.74726   2.81819      74   1.70496  -3.74726   2.81819
    26)     1.31529  -5.08067   2.67774      1.31529  -5.08067   2.67774      76   1.31529  -5.08067   2.67774
    27)     0.14505  -5.39696   1.99230      0.14505  -5.39696   1.99230      78   0.14505  -5.39696   1.99230
    28)    -0.64381  -4.38386   1.44676     -0.64381  -4.38386   1.44676      80  -0.64381  -4.38386   1.44676
    29)    -2.31984  -1.44455   3.46165     -2.31984  -1.44455   3.46165      82  -2.31984  -1.44455   3.46165
    30)    -3.03712   1.22737   3.03934     -3.03712   1.22737   3.03934      83  -3.03712   1.22737   3.03934
    31)    -3.33925   0.60118   4.24896     -3.33925   0.60118   4.24896      84  -3.33925   0.60118   4.24896
    32)    -2.97964  -0.72904   4.46105     -2.97964  -0.72904   4.46105      85  -2.97964  -0.72904   4.46105
    33)    -3.76719   3.52341   0.07316     -3.76719   3.52341   0.07316      40  -3.76719   3.52341   0.07316
    34)    -3.53406   5.94585   0.58427     -3.53406   5.94585   0.58427      42  -3.53406   5.94585   0.58427
    35)    -1.39936   6.82344   1.51308     -1.39936   6.82344   1.51308      44  -1.39936   6.82344   1.51308
    36)     0.51058   5.27413   1.92351      0.51058   5.27413   1.92351      46   0.51058   5.27413   1.92351
    37)     0.27185   2.85592   1.42118      0.27185   2.85592   1.42118      48   0.27185   2.85592   1.42118
    38)    -2.23185   1.79001  -2.36136     -2.23185   1.79001  -2.36136      51  -2.23185   1.79001  -2.36136
    39)    -4.09926   1.37031  -3.95020     -4.09926   1.37031  -3.95020      53  -4.09926   1.37031  -3.95020
    40)    -6.21759   0.33006  -3.14713     -6.21759   0.33006  -3.14713      55  -6.21759   0.33006  -3.14713
    41)    -6.46915  -0.27295  -0.74456     -6.46915  -0.27295  -0.74456      57  -6.46915  -0.27295  -0.74456
    42)    -4.62059   0.16113   0.84636     -4.62059   0.16113   0.84636      59  -4.62059   0.16113   0.84636
    43)    -1.75412  -1.60826  -1.95918     -1.75412  -1.60826  -1.95918      62  -1.75412  -1.60826  -1.95918
    44)    -3.64835  -2.45422  -3.33004     -3.64835  -2.45422  -3.33004      64  -3.64835  -2.45422  -3.33004
    45)    -5.53254  -3.66222  -2.23612     -5.53254  -3.66222  -2.23612      66  -5.53254  -3.66222  -2.23612
    46)    -5.51842  -4.01611   0.22719     -5.51842  -4.01611   0.22719      68  -5.51842  -4.01611   0.22719
    47)    -3.63510  -3.16559   1.59474     -3.63510  -3.16559   1.59474      70  -3.63510  -3.16559   1.59474
    48)     1.25110  -1.69254   2.34111      1.25110  -1.69254   2.34111      73   1.25110  -1.69254   2.34111
    49)     2.63256  -3.49634   3.33719      2.63256  -3.49634   3.33719      75   2.63256  -3.49634   3.33719
    50)     1.93608  -5.87711   3.09476      1.93608  -5.87711   3.09476      77   1.93608  -5.87711   3.09476
    51)    -0.15449  -6.44034   1.86992     -0.15449  -6.44034   1.86992      79  -0.15449  -6.44034   1.86992
    52)    -1.54977  -4.63725   0.89235     -1.54977  -4.63725   0.89235      81  -1.54977  -4.63725   0.89235
    53)    -2.01476  -2.48035   3.63320     -2.01476  -2.48035   3.63320      86  -2.01476  -2.48035   3.63320
    54)    -3.20215  -1.21050   5.41613     -3.20215  -1.21050   5.41613      87  -3.20215  -1.21050   5.41613
    55)    -3.29719   2.27707   2.88055     -3.29719   2.27707   2.88055      88  -3.29719   2.27707   2.88055
    56)    -3.84674   1.16209   5.03719     -3.84674   1.16209   5.03719      89  -3.84674   1.16209   5.03719

 Total nr. of (C)SFOs (summation over all irreps) :  1354

 Specify PRINT SFO in the input file to get a full list

 Nr. of SFOs for ir.rep.           A :  1354



 ================================
 (Slater-type)  F U N C T I O N S  ***  (Basis and Fit)  ***
 ================================
  

 Atom Type    1  (Pd)
 ==============

 Valence Basis Sets:  26
 -----------------------
   1 S  306.000000
   1 S   76.400000
   1 S   45.900000
   2 S   53.800000
   2 S   19.550000
   3 S   10.150000
   3 S    6.650000
   4 S    6.150000
   4 S    3.900000
   5 S    2.500000
   5 S    1.450000
   5 S    0.850000
   2 P   29.100000
   2 P   18.750000
   3 P   11.250000
   3 P    8.100000
   4 P    5.950000
   4 P    3.950000
   4 P    2.700000
   3 D   17.550000
   3 D   10.450000
   3 D    6.900000
   4 D    4.250000
   4 D    2.200000
   4 D    1.100000
   5 P    1.450000

 Charge Fitting Sets (for the computation of the Coulomb Potential):  58
 -----------------------------------------------------------------------
   1 S  612.000000
   1 S  446.101000
   1 S  325.174000
   1 S  237.027000
   1 S  172.774000
   1 S  125.939000
   1 S   91.800000
   1 S   53.670000
   2 S   58.190000
   2 S   38.430000
   3 S   37.300000
   3 S   26.280000
   4 S   24.500000
   4 S   18.000000
   5 S   16.470000
   5 S   12.460000
   6 S   11.300000
   6 S    8.740000
   7 S    7.890000
   7 S    6.210000
   8 S    5.590000
   8 S    4.470000
   8 S    3.570000
   9 S    3.210000
   9 S    2.600000
   9 S    2.100000
   9 S    1.700000
   2 P   64.650000
   3 P   49.410000
   4 P   37.530000
   5 P   28.620000
   6 P   21.980000
   6 P   14.500000
   7 P   11.220000
   7 P    7.620000
   8 P    5.940000
   8 P    4.130000
   9 P    3.240000
   9 P    2.300000
   3 D   56.350000
   4 D   37.260000
   5 D   25.120000
   6 D   17.230000
   6 D   10.190000
   7 D    7.110000
   7 D    4.360000
   8 D    3.090000
   8 D    1.950000
   4 F   47.900000
   5 F   28.270000
   6 F   17.190000
   6 F    9.040000
   7 F    5.640000
   7 F    3.100000
   5 G   20.900000
   6 G    9.980000
   7 G    4.980000
   7 G    2.200000

 Atom Type    2  (Cl)
 ==============

 Valence Basis Sets:  13
 -----------------------
   1 S   20.300000
   1 S   15.250000
   2 S    6.250000
   2 S    4.450000
   2 P    8.850000
   2 P    5.050000
   3 S    3.450000
   3 S    2.300000
   3 S    1.600000
   3 P    3.350000
   3 P    2.050000
   3 P    1.200000
   3 D    2.000000

 Charge Fitting Sets (for the computation of the Coulomb Potential):  30
 -----------------------------------------------------------------------
   1 S   40.600000
   1 S   24.830000
   2 S   28.080000
   2 S   19.200000
   3 S   19.250000
   3 S   13.970000
   3 S   10.130000
   4 S    9.710000
   4 S    7.320000
   4 S    5.510000
   5 S    5.170000
   5 S    4.000000
   5 S    3.100000
   5 S    2.400000
   2 P   29.150000
   3 P   21.740000
   4 P   16.160000
   4 P    9.600000
   5 P    7.180000
   5 P    4.480000
   5 P    2.800000
   3 D   21.950000
   4 D   15.750000
   4 D    9.040000
   5 D    6.550000
   5 D    3.960000
   5 D    2.400000
   4 F    5.000000
   4 F    3.000000
   5 G    3.500000

 Atom Type    3  (S)
 ==============

 Valence Basis Sets:  13
 -----------------------
   1 S   19.400000
   1 S   14.350000
   2 S    5.900000
   2 S    4.250000
   2 P    8.050000
   2 P    4.550000
   3 S    3.450000
   3 S    2.250000
   3 S    1.500000
   3 P    2.650000
   3 P    1.600000
   3 P    1.000000
   3 D    2.100000

 Charge Fitting Sets (for the computation of the Coulomb Potential):  30
 -----------------------------------------------------------------------
   1 S   38.800000
   1 S   23.350000
   2 S   26.020000
   2 S   17.570000
   3 S   17.420000
   3 S   12.500000
   3 S    8.980000
   4 S    8.520000
   4 S    6.360000
   4 S    4.750000
   5 S    4.420000
   5 S    3.390000
   5 S    2.600000
   5 S    2.000000
   2 P   27.450000
   3 P   20.250000
   4 P   14.920000
   4 P    8.780000
   5 P    6.520000
   5 P    4.040000
   5 P    2.500000
   3 D   20.900000
   4 D   14.560000
   4 D    8.130000
   5 D    5.740000
   5 D    3.390000
   5 D    2.000000
   4 F    5.000000
   4 F    3.000000
   5 G    3.620000

 Atom Type    4  (F)
 ==============

 Valence Basis Sets:   9
 -----------------------
   1 S   10.880000
   1 S    7.700000
   2 S    3.240000
   2 S    1.940000
   2 S    0.740000
   2 P    4.540000
   2 P    2.300000
   2 P    1.240000
   3 D    2.000000

 Charge Fitting Sets (for the computation of the Coulomb Potential):  23
 -----------------------------------------------------------------------
   1 S   21.760000
   2 S   24.390000
   2 S   16.560000
   2 S   11.240000
   2 S    7.630000
   3 S    7.600000
   3 S    5.480000
   3 S    3.950000
   3 S    2.850000
   3 S    2.050000
   3 S    1.480000
   2 P   14.400000
   2 P    7.530000
   3 P    5.900000
   3 P    3.420000
   3 P    1.980000
   3 D    9.700000
   3 D    6.160000
   3 D    3.910000
   3 D    2.480000
   4 F    6.500000
   4 F    3.750000
   5 G    4.500000

 Atom Type    5  (O)
 ==============

 Valence Basis Sets:   9
 -----------------------
   1 S    9.800000
   1 S    6.800000
   2 S    7.580000
   2 S    2.880000
   2 S    1.720000
   2 P    4.080000
   2 P    2.080000
   2 P    1.120000
   3 D    2.000000

 Charge Fitting Sets (for the computation of the Coulomb Potential):  22
 -----------------------------------------------------------------------
   1 S   19.600000
   2 S   22.600000
   2 S   15.680000
   2 S   10.890000
   2 S    7.560000
   3 S    7.690000
   3 S    5.650000
   3 S    4.150000
   3 S    3.050000
   3 S    2.240000
   2 P   12.860000
   2 P    7.680000
   3 P    6.780000
   3 P    4.390000
   3 P    2.840000
   3 D    8.800000
   3 D    5.580000
   3 D    3.530000
   3 D    2.240000
   4 F    6.200000
   4 F    3.700000
   5 G    4.500000

 Atom Type    6  (N)
 ==============

 Valence Basis Sets:   9
 -----------------------
   1 S    8.740000
   1 S    5.900000
   2 S    5.150000
   2 S    2.500000
   2 S    1.500000
   2 P    3.680000
   2 P    1.880000
   2 P    1.000000
   3 D    2.200000

 Charge Fitting Sets (for the computation of the Coulomb Potential):  22
 -----------------------------------------------------------------------
   1 S   17.480000
   2 S   20.150000
   2 S   13.990000
   2 S    9.710000
   2 S    6.740000
   3 S    6.860000
   3 S    5.040000
   3 S    3.700000
   3 S    2.720000
   3 S    2.000000
   2 P   11.320000
   2 P    6.730000
   3 P    5.920000
   3 P    3.820000
   3 P    2.460000
   3 D    8.100000
   3 D    5.080000
   3 D    3.190000
   3 D    2.000000
   4 F    5.800000
   4 F    3.600000
   5 G    4.500000

 Atom Type    7  (C)
 ==============

 Valence Basis Sets:   9
 -----------------------
   1 S    7.680000
   1 S    5.000000
   2 S    1.280000
   2 S    2.100000
   2 S    4.600000
   2 P    0.820000
   2 P    1.480000
   2 P    2.940000
   3 D    2.200000

 Charge Fitting Sets (for the computation of the Coulomb Potential):  22
 -----------------------------------------------------------------------
   1 S   15.360000
   2 S   17.530000
   2 S   12.070000
   2 S    8.310000
   2 S    5.730000
   3 S    5.780000
   3 S    4.220000
   3 S    3.080000
   3 S    2.250000
   3 S    1.640000
   2 P    9.880000
   2 P    5.800000
   3 P    5.050000
   3 P    3.230000
   3 P    2.060000
   3 D    7.200000
   3 D    4.400000
   3 D    2.690000
   3 D    1.640000
   4 F    5.400000
   4 F    3.550000
   5 G    4.500000

 Atom Type    8  (H)
 ==============

 Valence Basis Sets:   4
 -----------------------
   1 S    0.690000
   1 S    0.920000
   1 S    1.580000
   2 P    1.250000

 Charge Fitting Sets (for the computation of the Coulomb Potential):  11
 -----------------------------------------------------------------------
   1 S    3.160000
   1 S    2.090000
   1 S    1.380000
   2 S    1.500000
   2 P    4.000000
   2 P    2.650000
   2 P    1.750000
   3 D    4.000000
   3 D    2.500000
   4 F    3.000000
   5 G    4.000000

 Atom Type    9  (P)
 ==============

 Valence Basis Sets:  13
 -----------------------
   1 S   18.000000
   1 S   13.350000
   2 S    5.600000
   2 S    4.050000
   2 P    7.450000
   2 P    4.100000
   3 S    2.700000
   3 S    1.850000
   3 S    1.300000
   3 P    2.300000
   3 P    1.350000
   3 P    0.850000
   3 D    1.900000

 Charge Fitting Sets (for the computation of the Coulomb Potential):  30
 -----------------------------------------------------------------------
   1 S   36.000000
   1 S   21.450000
   2 S   23.670000
   2 S   15.860000
   3 S   15.600000
   3 S   11.130000
   3 S    7.940000
   4 S    7.490000
   4 S    5.560000
   4 S    4.130000
   5 S    3.810000
   5 S    2.910000
   5 S    2.230000
   5 S    1.700000
   2 P   25.450000
   3 P   18.490000
   4 P   13.440000
   4 P    7.810000
   5 P    5.730000
   5 P    3.510000
   5 P    2.150000
   3 D   19.350000
   4 D   13.230000
   4 D    7.250000
   5 D    5.040000
   5 D    2.930000
   5 D    1.700000
   4 F    5.000000
   4 F    3.000000
   5 G    3.750000

 Atom Type   10  (C)
 ==============

 Valence Basis Sets:   9
 -----------------------
   1 S    7.680000
   1 S    5.000000
   2 S    1.280000
   2 S    2.100000
   2 S    4.600000
   2 P    0.820000
   2 P    1.480000
   2 P    2.940000
   3 D    2.200000

 Charge Fitting Sets (for the computation of the Coulomb Potential):  22
 -----------------------------------------------------------------------
   1 S   15.360000
   2 S   17.530000
   2 S   12.070000
   2 S    8.310000
   2 S    5.730000
   3 S    5.780000
   3 S    4.220000
   3 S    3.080000
   3 S    2.250000
   3 S    1.640000
   2 P    9.880000
   2 P    5.800000
   3 P    5.050000
   3 P    3.230000
   3 P    2.060000
   3 D    7.200000
   3 D    4.400000
   3 D    2.690000
   3 D    1.640000
   4 F    5.400000
   4 F    3.550000
   5 G    4.500000

 Atom Type   11  (H)
 ==============

 Valence Basis Sets:   4
 -----------------------
   1 S    0.690000
   1 S    0.920000
   1 S    1.580000
   2 P    1.250000

 Charge Fitting Sets (for the computation of the Coulomb Potential):  11
 -----------------------------------------------------------------------
   1 S    3.160000
   1 S    2.090000
   1 S    1.380000
   2 S    1.500000
   2 P    4.000000
   2 P    2.650000
   2 P    1.750000
   3 D    4.000000
   3 D    2.500000
   4 F    3.000000
   5 G    4.000000


 BAS: List of all Elementary Cartesian Basis Functions
 =====================================================

 The numbering in the list below (to the right of the function characteristics) is referred
 to in print-outs of MO eigenvectors and Mulliken populations in the BAS representation
 (as contrasted to the SFO representation).

 Notes:
 1. The functions are characterized by a polynomial prefactor (powers of x,y,z and r) and
    an exponential decay factor alpha.
 2. Since the basis sets are specific for an atom TYPE, the individual functions occur on
    all atoms of that type.
 3. The word 'Core' in the left margin signals that it is a Core Function (CF) : not a
    degree of freedom in the valence set, but only used to ensure orthogonalization of
    the other valence basis functions on the frozen Core Orbitals.


 (power of) X  Y  Z  R     Alpha  on Atom
            ==========     =====     ==========

 Pd                                   1
                                  ---------------------------------------------------------------------------
            0  0  0  0   306.000      1
            0  0  0  0    76.400      2
            0  0  0  0    45.900      3
            0  0  0  1    53.800      4
            0  0  0  1    19.550      5
            0  0  0  2    10.150      6
            0  0  0  2     6.650      7
            0  0  0  3     6.150      8
            0  0  0  3     3.900      9
            0  0  0  4     2.500     10
            0  0  0  4     1.450     11
            0  0  0  4     0.850     12
            1  0  0  0    29.100     13
            0  1  0  0    29.100     14
            0  0  1  0    29.100     15
            1  0  0  0    18.750     16
            0  1  0  0    18.750     17
            0  0  1  0    18.750     18
            1  0  0  1    11.250     19
            0  1  0  1    11.250     20
            0  0  1  1    11.250     21
            1  0  0  1     8.100     22
            0  1  0  1     8.100     23
            0  0  1  1     8.100     24
            1  0  0  2     5.950     25
            0  1  0  2     5.950     26
            0  0  1  2     5.950     27
            1  0  0  2     3.950     28
            0  1  0  2     3.950     29
            0  0  1  2     3.950     30
            1  0  0  2     2.700     31
            0  1  0  2     2.700     32
            0  0  1  2     2.700     33
            2  0  0  0    17.550     34
            1  1  0  0    17.550     35
            1  0  1  0    17.550     36
            0  2  0  0    17.550     37
            0  1  1  0    17.550     38
            0  0  2  0    17.550     39
            2  0  0  0    10.450     40
            1  1  0  0    10.450     41
            1  0  1  0    10.450     42
            0  2  0  0    10.450     43
            0  1  1  0    10.450     44
            0  0  2  0    10.450     45
            2  0  0  0     6.900     46
            1  1  0  0     6.900     47
            1  0  1  0     6.900     48
            0  2  0  0     6.900     49
            0  1  1  0     6.900     50
            0  0  2  0     6.900     51
            2  0  0  1     4.250     52
            1  1  0  1     4.250     53
            1  0  1  1     4.250     54
            0  2  0  1     4.250     55
            0  1  1  1     4.250     56
            0  0  2  1     4.250     57
            2  0  0  1     2.200     58
            1  1  0  1     2.200     59
            1  0  1  1     2.200     60
            0  2  0  1     2.200     61
            0  1  1  1     2.200     62
            0  0  2  1     2.200     63
            2  0  0  1     1.100     64
            1  1  0  1     1.100     65
            1  0  1  1     1.100     66
            0  2  0  1     1.100     67
            0  1  1  1     1.100     68
            0  0  2  1     1.100     69
            1  0  0  3     1.450     70
            0  1  0  3     1.450     71
            0  0  1  3     1.450     72

 Cl                                   2
                                  ---------------------------------------------------------------------------
            0  0  0  0    20.300     73
            0  0  0  0    15.250     74
            0  0  0  1     6.250     75
            0  0  0  1     4.450     76
            1  0  0  0     8.850     77
            0  1  0  0     8.850     78
            0  0  1  0     8.850     79
            1  0  0  0     5.050     80
            0  1  0  0     5.050     81
            0  0  1  0     5.050     82
            0  0  0  2     3.450     83
            0  0  0  2     2.300     84
            0  0  0  2     1.600     85
            1  0  0  1     3.350     86
            0  1  0  1     3.350     87
            0  0  1  1     3.350     88
            1  0  0  1     2.050     89
            0  1  0  1     2.050     90
            0  0  1  1     2.050     91
            1  0  0  1     1.200     92
            0  1  0  1     1.200     93
            0  0  1  1     1.200     94
            2  0  0  0     2.000     95
            1  1  0  0     2.000     96
            1  0  1  0     2.000     97
            0  2  0  0     2.000     98
            0  1  1  0     2.000     99
            0  0  2  0     2.000    100

 S                                    3
                                  ---------------------------------------------------------------------------
            0  0  0  0    19.400    101
            0  0  0  0    14.350    102
            0  0  0  1     5.900    103
            0  0  0  1     4.250    104
            1  0  0  0     8.050    105
            0  1  0  0     8.050    106
            0  0  1  0     8.050    107
            1  0  0  0     4.550    108
            0  1  0  0     4.550    109
            0  0  1  0     4.550    110
            0  0  0  2     3.450    111
            0  0  0  2     2.250    112
            0  0  0  2     1.500    113
            1  0  0  1     2.650    114
            0  1  0  1     2.650    115
            0  0  1  1     2.650    116
            1  0  0  1     1.600    117
            0  1  0  1     1.600    118
            0  0  1  1     1.600    119
            1  0  0  1     1.000    120
            0  1  0  1     1.000    121
            0  0  1  1     1.000    122
            2  0  0  0     2.100    123
            1  1  0  0     2.100    124
            1  0  1  0     2.100    125
            0  2  0  0     2.100    126
            0  1  1  0     2.100    127
            0  0  2  0     2.100    128

 F                                    4    5    6    7
                                  ---------------------------------------------------------------------------
            0  0  0  0    10.880    129  149  169  189
            0  0  0  0     7.700    130  150  170  190
            0  0  0  1     3.240    131  151  171  191
            0  0  0  1     1.940    132  152  172  192
            0  0  0  1     0.740    133  153  173  193
            1  0  0  0     4.540    134  154  174  194
            0  1  0  0     4.540    135  155  175  195
            0  0  1  0     4.540    136  156  176  196
            1  0  0  0     2.300    137  157  177  197
            0  1  0  0     2.300    138  158  178  198
            0  0  1  0     2.300    139  159  179  199
            1  0  0  0     1.240    140  160  180  200
            0  1  0  0     1.240    141  161  181  201
            0  0  1  0     1.240    142  162  182  202
            2  0  0  0     2.000    143  163  183  203
            1  1  0  0     2.000    144  164  184  204
            1  0  1  0     2.000    145  165  185  205
            0  2  0  0     2.000    146  166  186  206
            0  1  1  0     2.000    147  167  187  207
            0  0  2  0     2.000    148  168  188  208

 O                                    8    9   10
                                  ---------------------------------------------------------------------------
            0  0  0  0     9.800    209  229  249
            0  0  0  0     6.800    210  230  250
            0  0  0  1     7.580    211  231  251
            0  0  0  1     2.880    212  232  252
            0  0  0  1     1.720    213  233  253
            1  0  0  0     4.080    214  234  254
            0  1  0  0     4.080    215  235  255
            0  0  1  0     4.080    216  236  256
            1  0  0  0     2.080    217  237  257
            0  1  0  0     2.080    218  238  258
            0  0  1  0     2.080    219  239  259
            1  0  0  0     1.120    220  240  260
            0  1  0  0     1.120    221  241  261
            0  0  1  0     1.120    222  242  262
            2  0  0  0     2.000    223  243  263
            1  1  0  0     2.000    224  244  264
            1  0  1  0     2.000    225  245  265
            0  2  0  0     2.000    226  246  266
            0  1  1  0     2.000    227  247  267
            0  0  2  0     2.000    228  248  268

 N                                   11
                                  ---------------------------------------------------------------------------
            0  0  0  0     8.740    269
            0  0  0  0     5.900    270
            0  0  0  1     5.150    271
            0  0  0  1     2.500    272
            0  0  0  1     1.500    273
            1  0  0  0     3.680    274
            0  1  0  0     3.680    275
            0  0  1  0     3.680    276
            1  0  0  0     1.880    277
            0  1  0  0     1.880    278
            0  0  1  0     1.880    279
            1  0  0  0     1.000    280
            0  1  0  0     1.000    281
            0  0  1  0     1.000    282
            2  0  0  0     2.200    283
            1  1  0  0     2.200    284
            1  0  1  0     2.200    285
            0  2  0  0     2.200    286
            0  1  1  0     2.200    287
            0  0  2  0     2.200    288

 C                                   12   13   14   15   16   17   18   19   20   21   22   23   24   25
                                  ---------------------------------------------------------------------------
            0  0  0  0     7.680    289  309  329  349  369  389  409  429  449  469  489  509  529  549
            0  0  0  0     5.000    290  310  330  350  370  390  410  430  450  470  490  510  530  550
            0  0  0  1     1.280    291  311  331  351  371  391  411  431  451  471  491  511  531  551
            0  0  0  1     2.100    292  312  332  352  372  392  412  432  452  472  492  512  532  552
            0  0  0  1     4.600    293  313  333  353  373  393  413  433  453  473  493  513  533  553
            1  0  0  0     0.820    294  314  334  354  374  394  414  434  454  474  494  514  534  554
            0  1  0  0     0.820    295  315  335  355  375  395  415  435  455  475  495  515  535  555
            0  0  1  0     0.820    296  316  336  356  376  396  416  436  456  476  496  516  536  556
            1  0  0  0     1.480    297  317  337  357  377  397  417  437  457  477  497  517  537  557
            0  1  0  0     1.480    298  318  338  358  378  398  418  438  458  478  498  518  538  558
            0  0  1  0     1.480    299  319  339  359  379  399  419  439  459  479  499  519  539  559
            1  0  0  0     2.940    300  320  340  360  380  400  420  440  460  480  500  520  540  560
            0  1  0  0     2.940    301  321  341  361  381  401  421  441  461  481  501  521  541  561
            0  0  1  0     2.940    302  322  342  362  382  402  422  442  462  482  502  522  542  562
            2  0  0  0     2.200    303  323  343  363  383  403  423  443  463  483  503  523  543  563
            1  1  0  0     2.200    304  324  344  364  384  404  424  444  464  484  504  524  544  564
            1  0  1  0     2.200    305  325  345  365  385  405  425  445  465  485  505  525  545  565
            0  2  0  0     2.200    306  326  346  366  386  406  426  446  466  486  506  526  546  566
            0  1  1  0     2.200    307  327  347  367  387  407  427  447  467  487  507  527  547  567
            0  0  2  0     2.200    308  328  348  368  388  408  428  448  468  488  508  528  548  568

 H                                   26   27   28   29   30   31   32   33
                                  ---------------------------------------------------------------------------
            0  0  0  0     0.690    569  575  581  587  593  599  605  611
            0  0  0  0     0.920    570  576  582  588  594  600  606  612
            0  0  0  0     1.580    571  577  583  589  595  601  607  613
            1  0  0  0     1.250    572  578  584  590  596  602  608  614
            0  1  0  0     1.250    573  579  585  591  597  603  609  615
            0  0  1  0     1.250    574  580  586  592  598  604  610  616

 P                                   34   35
                                  ---------------------------------------------------------------------------
            0  0  0  0    18.000    617  645
            0  0  0  0    13.350    618  646
            0  0  0  1     5.600    619  647
            0  0  0  1     4.050    620  648
            1  0  0  0     7.450    621  649
            0  1  0  0     7.450    622  650
            0  0  1  0     7.450    623  651
            1  0  0  0     4.100    624  652
            0  1  0  0     4.100    625  653
            0  0  1  0     4.100    626  654
            0  0  0  2     2.700    627  655
            0  0  0  2     1.850    628  656
            0  0  0  2     1.300    629  657
            1  0  0  1     2.300    630  658
            0  1  0  1     2.300    631  659
            0  0  1  1     2.300    632  660
            1  0  0  1     1.350    633  661
            0  1  0  1     1.350    634  662
            0  0  1  1     1.350    635  663
            1  0  0  1     0.850    636  664
            0  1  0  1     0.850    637  665
            0  0  1  1     0.850    638  666
            2  0  0  0     1.900    639  667
            1  1  0  0     1.900    640  668
            1  0  1  0     1.900    641  669
            0  2  0  0     1.900    642  670
            0  1  1  0     1.900    643  671
            0  0  2  0     1.900    644  672

 C                                   36   37   38   39   40   41   42   43   44   45   46   47   48   49   50
                                     51   52   53   54   55   56   57   58   59   60   61   62   63   64   65
                                  ---------------------------------------------------------------------------
            0  0  0  0     7.680    673  693  713  733  753  773  793  813  833  853  873  893  913  933  953
                                    973  993 1013 1033 1053 1073 1093 1113 1133 1153 1173 1193 1213 1233 1253
            0  0  0  0     5.000    674  694  714  734  754  774  794  814  834  854  874  894  914  934  954
                                    974  994 1014 1034 1054 1074 1094 1114 1134 1154 1174 1194 1214 1234 1254
            0  0  0  1     1.280    675  695  715  735  755  775  795  815  835  855  875  895  915  935  955
                                    975  995 1015 1035 1055 1075 1095 1115 1135 1155 1175 1195 1215 1235 1255
            0  0  0  1     2.100    676  696  716  736  756  776  796  816  836  856  876  896  916  936  956
                                    976  996 1016 1036 1056 1076 1096 1116 1136 1156 1176 1196 1216 1236 1256
            0  0  0  1     4.600    677  697  717  737  757  777  797  817  837  857  877  897  917  937  957
                                    977  997 1017 1037 1057 1077 1097 1117 1137 1157 1177 1197 1217 1237 1257
            1  0  0  0     0.820    678  698  718  738  758  778  798  818  838  858  878  898  918  938  958
                                    978  998 1018 1038 1058 1078 1098 1118 1138 1158 1178 1198 1218 1238 1258
            0  1  0  0     0.820    679  699  719  739  759  779  799  819  839  859  879  899  919  939  959
                                    979  999 1019 1039 1059 1079 1099 1119 1139 1159 1179 1199 1219 1239 1259
            0  0  1  0     0.820    680  700  720  740  760  780  800  820  840  860  880  900  920  940  960
                                    980 1000 1020 1040 1060 1080 1100 1120 1140 1160 1180 1200 1220 1240 1260
            1  0  0  0     1.480    681  701  721  741  761  781  801  821  841  861  881  901  921  941  961
                                    981 1001 1021 1041 1061 1081 1101 1121 1141 1161 1181 1201 1221 1241 1261
            0  1  0  0     1.480    682  702  722  742  762  782  802  822  842  862  882  902  922  942  962
                                    982 1002 1022 1042 1062 1082 1102 1122 1142 1162 1182 1202 1222 1242 1262
            0  0  1  0     1.480    683  703  723  743  763  783  803  823  843  863  883  903  923  943  963
                                    983 1003 1023 1043 1063 1083 1103 1123 1143 1163 1183 1203 1223 1243 1263
            1  0  0  0     2.940    684  704  724  744  764  784  804  824  844  864  884  904  924  944  964
                                    984 1004 1024 1044 1064 1084 1104 1124 1144 1164 1184 1204 1224 1244 1264
            0  1  0  0     2.940    685  705  725  745  765  785  805  825  845  865  885  905  925  945  965
                                    985 1005 1025 1045 1065 1085 1105 1125 1145 1165 1185 1205 1225 1245 1265
            0  0  1  0     2.940    686  706  726  746  766  786  806  826  846  866  886  906  926  946  966
                                    986 1006 1026 1046 1066 1086 1106 1126 1146 1166 1186 1206 1226 1246 1266
            2  0  0  0     2.200    687  707  727  747  767  787  807  827  847  867  887  907  927  947  967
                                    987 1007 1027 1047 1067 1087 1107 1127 1147 1167 1187 1207 1227 1247 1267
            1  1  0  0     2.200    688  708  728  748  768  788  808  828  848  868  888  908  928  948  968
                                    988 1008 1028 1048 1068 1088 1108 1128 1148 1168 1188 1208 1228 1248 1268
            1  0  1  0     2.200    689  709  729  749  769  789  809  829  849  869  889  909  929  949  969
                                    989 1009 1029 1049 1069 1089 1109 1129 1149 1169 1189 1209 1229 1249 1269
            0  2  0  0     2.200    690  710  730  750  770  790  810  830  850  870  890  910  930  950  970
                                    990 1010 1030 1050 1070 1090 1110 1130 1150 1170 1190 1210 1230 1250 1270
            0  1  1  0     2.200    691  711  731  751  771  791  811  831  851  871  891  911  931  951  971
                                    991 1011 1031 1051 1071 1091 1111 1131 1151 1171 1191 1211 1231 1251 1271
            0  0  2  0     2.200    692  712  732  752  772  792  812  832  852  872  892  912  932  952  972
                                    992 1012 1032 1052 1072 1092 1112 1132 1152 1172 1192 1212 1232 1252 1272

 H                                   66   67   68   69   70   71   72   73   74   75   76   77   78   79   80
                                     81   82   83   84   85   86   87   88   89
                                  ---------------------------------------------------------------------------
            0  0  0  0     0.690   1273 1279 1285 1291 1297 1303 1309 1315 1321 1327 1333 1339 1345 1351 1357
                                   1363 1369 1375 1381 1387 1393 1399 1405 1411
            0  0  0  0     0.920   1274 1280 1286 1292 1298 1304 1310 1316 1322 1328 1334 1340 1346 1352 1358
                                   1364 1370 1376 1382 1388 1394 1400 1406 1412
            0  0  0  0     1.580   1275 1281 1287 1293 1299 1305 1311 1317 1323 1329 1335 1341 1347 1353 1359
                                   1365 1371 1377 1383 1389 1395 1401 1407 1413
            1  0  0  0     1.250   1276 1282 1288 1294 1300 1306 1312 1318 1324 1330 1336 1342 1348 1354 1360
                                   1366 1372 1378 1384 1390 1396 1402 1408 1414
            0  1  0  0     1.250   1277 1283 1289 1295 1301 1307 1313 1319 1325 1331 1337 1343 1349 1355 1361
                                   1367 1373 1379 1385 1391 1397 1403 1409 1415
            0  0  1  0     1.250   1278 1284 1290 1296 1302 1308 1314 1320 1326 1332 1338 1344 1350 1356 1362
                                   1368 1374 1380 1386 1392 1398 1404 1410 1416

 Total number of charge fitting functions (nprimf)      6633
 Total number of Cartesian basis functions (naos)       1416
 Total number of Cartesian core functions  (ncos)          0

1
 ***************************************************************************************************



                                              ***********************
                                              *  T E C H N I C A L  *
                                              ***********************
  



 =============================================================
 P A R A L L E L I Z A T I O N  and  V E C T O R I Z A T I O N
 =============================================================
  
 Nr of parallel processes:                               16
 Maximum vector length in NumInt loops:                 128



 =====================
 S C F   U P D A T E S
 =====================
  
 Max. nr. of cycles:                               300
 Convergence criterion:                              0.0000010000
   secondary criterion:                              0.0010000000

 Mix parameter (when DIIS does not apply):           0.2000000000
 Mixed ADIIS+SDIIS will be used                  
    Max number of expansion vectors:                10
    Pure ADIIS when Max([F,P]) is above              0.1000000000
    Pure SDIIS when Max([F,P]) is below              0.0010000000
 Automatic ElectronSmearing (in case of problematic SCF convergence) disabled



 =================
 P R E C I S I O N  ***  (General: NumInt, NeglectFunctionTails, ...)  ***
 =================
  

 NumInt:           Target precision:                 8.0000000000
 -------           Initial precision:                8.0000000000
                   Min. precision (optimization):    8.0000000000

 Neglect Functions:          Basis functions:        0.1000000000E-09
 ------------------          Fit functions:          0.1000000000E-09



 ===========================
 L I N E A R   S C A L I N G
 ===========================
  

 Cut-off radii density fit:                        0.1000000000E-11
 Overlap cut-off criterion AO matrix elements:     0.1000000000E-09
 Cut-offs for Coulomb potential and fitted density:0.1000000000E-11
 Cut-off criterion for Coulomb multipole terms:    0.1000000000E-11
 Progressive Convergence parameter:                 0.000000000    
1
 ***************************************************************************************************



                                            ***************************
                                            *  C O M P U T A T I O N  *
                                            ***************************
  

 Number of elements of the density matrix on this node (used, total):     62811   1003236



 ===========================================
 Numerical Integration : Fuzzy Cells (Becke)
 ===========================================
  
 Becke grid quality: VERYGOOD       
  
 Lebedev angular grid order:             min:  13 max:  47
 Nr. of radial points:                   min:  64 max: 183

 Total nr. of points:    2167897
 Nr. of blocks:            16937
 Block length:               128
 Nr. of dummy points:         39


 Test of Precision of the Numerical Integration Grid
 ===================================================

 Integral of the Total Core Density:                   0.00000000000000



 ========================
 Density Fitting (zlmFit)
 ========================
  
 ZlmFit Fit Quality: VERYGOOD       
  
 Max L-expansion:                        min:   9 max:  11
 Nr. of radial interpolation points:     min: 120 max: 400



 ======================
 RI Hartree-Fock Scheme
 ======================
  
 Fit Set Quality     : VERYGOOD
 Threshold Quality   : VERYGOOD
 Integration Quality : VERYGOOD
 Fit Generation Method : AUTO
 Response Quality    : DEFAULT
 Is Range Separated  :  F
 
 RIHartreeFock Dependency: number of modified vectors:          84



 =====
 S C F  ***  ScaSCF  ***
 =====
  
 Initial density matrix is calculated as sum of fragments

 CYCLE    1
[...]
     450       13.7455         0.000       
     449       13.7208         0.000       
     448       13.6198         0.000       
     447       13.5520         0.000       
     446       13.4651         0.000       
     445       13.3232         0.000       
     444       13.2983         0.000       
     443       13.1639         0.000       
     442       13.1044         0.000       
     441       13.0962         0.000       
     440       13.0188         0.000       
     439       12.8799         0.000       
     438       12.8126         0.000       
     437       12.7934         0.000       
     436       12.7125         0.000       
     435       12.6481         0.000       
     434       12.5708         0.000       
     433       12.5426         0.000       
     432       12.4557         0.000       
     431       12.4456         0.000       
     430       12.3361         0.000       
     429       12.2872         0.000       
     428       12.2681         0.000       
     427       12.2000         0.000       
     426       12.1675         0.000       
     425       12.0879         0.000       
     424       11.9293         0.000       
     423       11.8979         0.000       
     422       11.8331         0.000       
     421       11.7313         0.000       
     420       11.6674         0.000       
     419       11.6415         0.000       
     418       11.5725         0.000       
     417       11.5380         0.000       
     416       11.4598         0.000       
     415       11.4280         0.000       
     414       11.3875         0.000       
     413       11.3053         0.000       
     412       11.2167         0.000       
     411       11.1526         0.000       
     410       11.0361         0.000       
     409       11.0131         0.000       
     408       10.9508         0.000       
     407       10.8704         0.000       
     406       10.8108         0.000       
     405       10.7698         0.000       
     404       10.7430         0.000       
     403       10.6499         0.000       
     402       10.6219         0.000       
     401       10.5696         0.000       
     400       10.4822         0.000       
     399       10.3695         0.000       
     398       10.2710         0.000       
     397       10.1756         0.000       
     396       10.1458         0.000       
     395       10.1191         0.000       
     394       10.0503         0.000       
     393       10.0376         0.000       
     392        9.9325         0.000       
     391        9.8634         0.000       
     390        9.8236         0.000       
     389        9.7665         0.000       
     388        9.7538         0.000       
     387        9.7174         0.000       
     386        9.7077         0.000       
     385        9.5815         0.000       
     384        9.5386         0.000       
     383        9.5040         0.000       
     382        9.4130         0.000       
     381        9.3509         0.000       
     380        9.3211         0.000       
     379        9.2120         0.000       
     378        9.1805         0.000       
     377        9.1361         0.000       
     376        9.0614         0.000       
     375        9.0508         0.000       
     374        8.9550         0.000       
     373        8.8755         0.000       
     372        8.8155         0.000       
     371        8.7743         0.000       
     370        8.6858         0.000       
     369        8.6452         0.000       
     368        8.6105         0.000       
     367        8.4869         0.000       
     366        8.4457         0.000       
     365        8.4305         0.000       
     364        8.3252         0.000       
     363        8.2224         0.000       
     362        8.1511         0.000       
     361        8.0986         0.000       
     360        7.9927         0.000       
     359        7.9351         0.000       
     358        7.8782         0.000       
     357        7.7682         0.000       
     356        7.6568         0.000       
     355        7.5397         0.000       
     354        7.4737         0.000       
     353        7.3355         0.000       
     352        7.2995         0.000       
     351        7.2688         0.000       
     350        7.2303         0.000       
     349        7.1502         0.000       
     348        7.0675         0.000       
     347        6.9900         0.000       
     346        6.9569         0.000       
     345        6.8946         0.000       
     344        6.8719         0.000       
     343        6.8075         0.000       
     342        6.6790         0.000       
     341        6.6471         0.000       
     340        6.5601         0.000       
     339        6.4970         0.000       
     338        6.4454         0.000       
     337        6.4250         0.000       
     336        6.3634         0.000       
     335        6.2879         0.000       
     334        6.2563         0.000       
     333        6.1899         0.000       
     332        6.1531         0.000       
     331        6.0911         0.000       
     330        6.0019         0.000       
     329        5.8800         0.000       
     328        5.8669         0.000       
     327        5.7767         0.000       
     326        5.7475         0.000       
     325        5.7029         0.000       
     324        5.6431         0.000       
     323        5.6147         0.000       
     322        5.5752         0.000       
     321        5.4405         0.000       
     320        5.4316         0.000       
     319        5.3910         0.000       
     318        5.3122         0.000       
     317        5.2625         0.000       
     316        5.1723         0.000       
     315        5.1521         0.000       
     314        5.0953         0.000       
     313        5.0448         0.000       
     312        4.8959         0.000       
     311        4.8749         0.000       
     310        4.8373         0.000       
     309        4.5920         0.000       
     308        4.5419         0.000       
     307        4.4645         0.000       
     306        4.4241         0.000       
     305        4.3499         0.000       
     304        4.1881         0.000       
     303        4.1226         0.000       
     302        4.0730         0.000       
     301        4.0059         0.000       
     300        3.9334         0.000       
     299        3.8884         0.000       
     298        3.8243         0.000       
     297        3.7412         0.000       
     296        3.5598         0.000       
     295        3.5139         0.000       
     294        3.4459         0.000       
     293        3.4128         0.000       
     292        3.3276         0.000       
     291        3.2742         0.000       
     290        3.2185         0.000       
     289        3.1458         0.000       
     288        3.0342         0.000       
     287        2.8715         0.000       
     286        2.8213         0.000       
     285        2.8000         0.000       
     284        2.7523         0.000       
     283        2.6960         0.000       
     282        2.6468         0.000       
     281        2.6216         0.000       
     280        2.5606         0.000       
     279        2.4898         0.000       
     278        2.3626         0.000       
     277        2.3425         0.000       
     276        2.2477         0.000       
     275        2.1523         0.000       
     274        2.0165         0.000       
     273        1.9724         0.000       
     272        1.9384         0.000       
     271        1.8901         0.000       
     270        1.8526         0.000       
     269        1.7425         0.000       
     268        1.6422         0.000       
     267        1.5319         0.000       
     266        1.4356         0.000       
     265        1.3478         0.000       
     264        1.2694         0.000       
     263        1.1870         0.000       
     262        1.1569         0.000       
     261        1.0589         0.000       
     260        1.0254         0.000       
     259        0.9524         0.000       
     258        0.8206         0.000       
     257        0.7443         0.000       
     256        0.5925         0.000       
     255        0.5015         0.000       
     254        0.4678         0.000       
     253        0.3446         0.000       
     252        0.2627         0.000       
     251        0.1712         0.000       
     250        0.0186         0.000       
     249       -0.0731         0.000       
     248       -0.2112         0.000       
     247       -0.2745         0.000       
     246       -0.5903         0.000       
     245       -0.6421         0.000       
     244       -0.7825         0.000       
     243       -0.8273         0.000       
     242       -0.9396         0.000       
     241       -0.9630         0.000       
     240       -1.2424         0.000       
     239       -1.4482         0.000       
     238       -1.6048         0.000       
     237       -1.7761         0.000 < LUMO
     236       -5.8109         2.000 < HOMO
     235       -6.0952         2.000       
     234       -6.5305         2.000       
     233       -6.7994         2.000       
     232       -6.9262         2.000       
     231       -7.3574         2.000       
     230       -7.4049         2.000       
     229       -7.5072         2.000       
     228       -7.5356         2.000       
     227       -7.5750         2.000       
     226       -7.6845         2.000       
     225       -7.7439         2.000       
     224       -7.7758         2.000       
     223       -7.8951         2.000       
     222       -7.9228         2.000       
     221       -8.0626         2.000       
     220       -8.0683         2.000       
     219       -8.1788         2.000       
     218       -8.3707         2.000       
     217       -8.3867         2.000       
     216       -8.4375         2.000       
     215       -8.5604         2.000       
     214       -8.7076         2.000       
     213       -8.7977         2.000       
     212       -9.1393         2.000       
     211       -9.3044         2.000       
     210       -9.3435         2.000       
     209       -9.3695         2.000       
     208       -9.5985         2.000       
     207       -9.6968         2.000       
     206       -9.7944         2.000       
     205       -9.8905         2.000       
     204       -9.9616         2.000       
     203       -9.9863         2.000       
     202       -9.9970         2.000       
     201      -10.1119         2.000       
     200      -10.1756         2.000       
     199      -10.2486         2.000       
     198      -10.3192         2.000       
     197      -10.4448         2.000       
     196      -10.5409         2.000       
     195      -10.5597         2.000       
     194      -10.6810         2.000       
     193      -10.7423         2.000       
     192      -10.8812         2.000       
     191      -10.9256         2.000       
     190      -11.0609         2.000       
     189      -11.1526         2.000       
     188      -11.2768         2.000       
     187      -11.3077         2.000       
     186      -11.3969         2.000       
     185      -11.6845         2.000       
     184      -11.8312         2.000       
     183      -11.8403         2.000       
     182      -11.8773         2.000       
     181      -11.9936         2.000       
     180      -12.0610         2.000       
     179      -12.1311         2.000       
     178      -12.1503         2.000       
     177      -12.2314         2.000       
     176      -12.2772         2.000       
     175      -12.3586         2.000       
     174      -12.4139         2.000       
     173      -12.4771         2.000       
     172      -12.5784         2.000       
     171      -12.6047         2.000       
     170      -12.7357         2.000       
     169      -12.7836         2.000       
     168      -12.8806         2.000       
     167      -12.9462         2.000       
     166      -12.9947         2.000       
     165      -13.0831         2.000       
     164      -13.1178         2.000       
     163      -13.1316         2.000       
     162      -13.1428         2.000       
     161      -13.1885         2.000       
     160      -13.2300         2.000       
     159      -13.2709         2.000       
     158      -13.3787         2.000       
     157      -13.4485         2.000       
     156      -13.5147         2.000       
     155      -13.5855         2.000       
     154      -13.6364         2.000       
     153      -13.8499         2.000       
     152      -14.0360         2.000       
     151      -14.2851         2.000       
     150      -14.3596         2.000       
     149      -14.6091         2.000       
     148      -14.6605         2.000       
     147      -14.7480         2.000       
     146      -14.8513         2.000       
     145      -14.9793         2.000       
     144      -15.1433         2.000       
     143      -15.1892         2.000       
     142      -15.4470         2.000       
     141      -15.8627         2.000       
     140      -15.9444         2.000       
     139      -16.0942         2.000       
     138      -16.4903         2.000       
     137      -16.5615         2.000       
     136      -16.7812         2.000       
     135      -17.0223         2.000       
     134      -17.0611         2.000       
     133      -17.2207         2.000       
     132      -17.3002         2.000       
     131      -17.3837         2.000       
     130      -17.4678         2.000       
     129      -17.6563         2.000       
     128      -17.7418         2.000       
     127      -17.8409         2.000       
     126      -18.2869         2.000       
     125      -18.3930         2.000       
     124      -18.9662         2.000       
     123      -19.2526         2.000       
     122      -19.3551         2.000       
     121      -19.8497         2.000       
     120      -20.6334         2.000       
     119      -20.8953         2.000       
     118      -21.1723         2.000       
     117      -21.2249         2.000       
     116      -21.2585         2.000       
     115      -21.3025         2.000       
     114      -21.5078         2.000       
     113      -21.5567         2.000       
     112      -21.5915         2.000       
     111      -21.6757         2.000       
     110      -21.7393         2.000       
     109      -22.1040         2.000       
     108      -22.3332         2.000       
     107      -22.6628         2.000       
     106      -23.7983         2.000       
     105      -24.2056         2.000       
     104      -24.2938         2.000       
     103      -24.3895         2.000       
     102      -24.4684         2.000       
     101      -24.6386         2.000       
     100      -24.7923         2.000       
      99      -25.1093         2.000       
      98      -25.8107         2.000       
      97      -27.5916         2.000       
      96      -30.0288         2.000       
      95      -30.6036         2.000       
      94      -34.4920         2.000       
      93      -34.6221         2.000       
      92      -34.9155         2.000       
      91      -35.1734         2.000       
      90      -58.0008         2.000       
      89      -58.7745         2.000       
      88      -58.9127         2.000       
      87      -93.9969         2.000       
      86     -129.8265         2.000       
      85     -129.9069         2.000       
      84     -129.9232         2.000       
      83     -130.2755         2.000       
      82     -130.3417         2.000       
      81     -130.3472         2.000       
      80     -165.3565         2.000       
      79     -165.3664         2.000       
      78     -165.3888         2.000       
      77     -181.6953         2.000       
      76     -182.1281         2.000       
      75     -197.3227         2.000       
      74     -197.3385         2.000       
      73     -197.6038         2.000       
      72     -222.9149         2.000       
      71     -260.9662         2.000       
      70     -278.1907         2.000       
      69     -278.2690         2.000       
      68     -278.2712         2.000       
      67     -278.3041         2.000       
      66     -278.6596         2.000       
      65     -278.7290         2.000       
      64     -278.7427         2.000       
      63     -278.7756         2.000       
      62     -278.7827         2.000       
      61     -278.7866         2.000       
      60     -278.7979         2.000       
      59     -278.8738         2.000       
      58     -278.8746         2.000       
      57     -278.9086         2.000       
      56     -278.9861         2.000       
      55     -279.0161         2.000       
      54     -279.0609         2.000       
      53     -279.0998         2.000       
      52     -279.1036         2.000       
      51     -279.1123         2.000       
      50     -279.1200         2.000       
      49     -279.1460         2.000       
      48     -279.1979         2.000       
      47     -279.2059         2.000       
      46     -279.2081         2.000       
      45     -279.2141         2.000       
      44     -279.2387         2.000       
      43     -279.3530         2.000       
      42     -279.3657         2.000       
      41     -279.3842         2.000       
      40     -279.3997         2.000       
      39     -279.4476         2.000       
      38     -279.4589         2.000       
      37     -279.5207         2.000       
      36     -279.6538         2.000       
      35     -279.6700         2.000       
      34     -279.7247         2.000       
      33     -279.8718         2.000       
      32     -279.9171         2.000       
      31     -280.3723         2.000       
      30     -280.8642         2.000       
      29     -281.0121         2.000       
      28     -281.0375         2.000       
      27     -281.0959         2.000       
      26     -338.3222         2.000       
      25     -338.3668         2.000       
      24     -338.4207         2.000       
      23     -338.5936         2.000       
      22     -338.5975         2.000       
      21     -391.6814         2.000       
      20     -522.3217         2.000       
      19     -522.3662         2.000       
      18     -523.8203         2.000       
      17     -532.1237         2.000       
      16     -532.4462         2.000       
      15     -532.5293         2.000       
      14     -654.2029         2.000       
      13     -674.9678         2.000       
      12     -675.1870         2.000       
      11     -675.3090         2.000       
      10     -675.3251         2.000       
       9    -2107.7589         2.000       
       8    -2108.2134         2.000       
       7    -2434.7118         2.000       
       6    -2777.1903         2.000       
       5    -3190.3201         2.000       
       4    -3190.4591         2.000       
       3    -3190.4878         2.000       
       2    -3561.3782         2.000       
       1   -24224.4566         2.000       

AMS application finished. Exiting.
NORMAL TERMINATION
     Total cpu time:    5609.67
  Total system time:      45.90
 Total elapsed time:    5681.96
NORMAL TERMINATION
