

 Parallel Execution: Process Information
 ==============================================================================
 Rank   Node Name                              NodeID   MyNodeRank  NodeMaster
    0   eu-g5-048-3                               0          0          0
    1   eu-g5-048-3                               1          0          1
    2   eu-g5-048-3                               0          1         -1
    3   eu-g5-048-3                               1          1         -1
    4   eu-g5-048-3                               0          2         -1
    5   eu-g5-048-3                               1          2         -1
    6   eu-g5-048-3                               0          3         -1
    7   eu-g5-048-3                               1          3         -1
    8   eu-g5-048-3                               0          4         -1
    9   eu-g5-048-3                               1          4         -1
   10   eu-g5-048-3                               0          5         -1
   11   eu-g5-048-3                               1          5         -1
   12   eu-g5-048-3                               0          6         -1
   13   eu-g5-048-3                               1          6         -1
   14   eu-g5-048-3                               0          7         -1
   15   eu-g5-048-3                               0          8         -1
 ==============================================================================


May use up to 30754MB of RAM as shared memory on node 0
May use up to 29775MB of RAM as shared memory on node 1

 *******************************************************************************
 *                                                                             *
 *  --------------------------------                                           *
 *   Amsterdam Modeling Suite (AMS)              2023.101                      *
 *  --------------------------------                                           *
 *                                               r111868 2023-03-31            *
 *                                                                             *
 *                                                                             *
 *                              =================                              *
 *                              |               |                              *
 *                              |     A M S     |                              *
 *                              |               |                              *
 *                              =================                              *
 *                                                                             *
 *                                                                             *
 *   Online information and documentation:  https://www.scm.com/support/       *
 *   E-mail:  support@scm.com   info@scm.com                                   *
 *                                                                             *
 *   Scientific publications using AMS results must be properly referenced     *
 *   See the User Manuals (or the web site) for recommended citations          *
 *   The terms and conditions of the End User License Agreement apply to       *
 *   the use of AMS, https://www.scm.com/license-terms/                        *
 *                                                                             *
 ***********************  x86_64_linux_intel / openmpi  ************************
 
 Licensed to: D-CHAB / ETH site license / Zurich / Switzerland 2023-06-23 15:55:12
 SCM User ID: u7035
  
 AMS 2023.101  RunTime: May25-2024 09:09:20  ShM Nodes: 2  Procs: 16

 AMS jobname: gs_dcype
 AMS jobid  : 1507339853

 Start   directory: /cluster/scratch/sroediger/michael/eda/
 Results directory: /cluster/scratch/sroediger/michael/eda/gs_dcype.results/
 Scratch directory: /scratch/amstmp_gs_dcype_kid0.1507339853/


 Communication costs MPI_COMM_WORLD:      8.659 usec per message,   0.0217 usec per 8-byte item
 Communication costs for intra-node:      5.241 usec per message,   0.0237 usec per 8-byte item

 RNG seed: 1908868674 -1591479952 1593342916 -1547554569 702286790 1642821674 584934755 1481513214



                     *************************************************************************
                     *  ADF 2023.101  RunTime: May25-2024 09:09:21  ShM Nodes: 2  Procs: 16  *
                     *************************************************************************
  

       ****************************
       * SINGLE POINT CALCULATION *
       ****************************
 
--------
Geometry
--------
Formula: C40H56ClF4NO3P2PdS
Atoms
  Index Symbol   x (angstrom)   y (angstrom)   z (angstrom)
      1     Pd     0.19904100     0.47830900    -0.11107300       region=pdsubstrate adf.f=pdsubstrate
      2     Cl     0.45953700     1.83646200    -3.36022700       region=pdsubstrate adf.f=pdsubstrate
      3      S     1.07001500    -1.06403500    -2.92188400       region=pdsubstrate adf.f=pdsubstrate
      4      P    -0.51172200     1.80292100     1.56301200       region=ligand adf.f=ligand
      5      P     2.28482800     0.40849500     0.96597200       region=ligand adf.f=ligand
      6      F    -3.54425600    -2.99480300     0.28139600       region=pdsubstrate adf.f=pdsubstrate
      7      F    -2.27066500    -5.26390100     0.88696400       region=pdsubstrate adf.f=pdsubstrate
      8      F     0.36640600    -5.56162600     0.29322000       region=pdsubstrate adf.f=pdsubstrate
      9      F     1.72616700    -3.54709600    -0.84789100       region=pdsubstrate adf.f=pdsubstrate
     10      O     2.42863800    -0.52939600    -2.99406400       region=pdsubstrate adf.f=pdsubstrate
     11      O     0.74074200    -2.31658700    -3.60096900       region=pdsubstrate adf.f=pdsubstrate
     12      O    -5.39359100     0.22068200    -2.80831600       region=pdsubstrate adf.f=pdsubstrate
     13      N     0.57376300    -1.11846700    -1.38622400       region=pdsubstrate adf.f=pdsubstrate
     14      C    -1.65347400     0.44509700    -0.94673500       region=pdsubstrate adf.f=pdsubstrate
     15      C    -2.30173600     1.56238500    -1.49110200       region=pdsubstrate adf.f=pdsubstrate
     16      H    -1.82269400     2.54306300    -1.44356800       region=pdsubstrate adf.f=pdsubstrate
     17      C    -3.54101000     1.47176000    -2.11367000       region=pdsubstrate adf.f=pdsubstrate
     18      H    -4.03762600     2.34965900    -2.53214700       region=pdsubstrate adf.f=pdsubstrate
     19      C    -4.18253500     0.23098700    -2.20970400       region=pdsubstrate adf.f=pdsubstrate
     20      C    -6.06935100    -0.99847000    -2.92984700       region=pdsubstrate adf.f=pdsubstrate
     21      H    -5.50782500    -1.72214200    -3.54727800       region=pdsubstrate adf.f=pdsubstrate
     22      H    -7.02595200    -0.78152400    -3.42220800       region=pdsubstrate adf.f=pdsubstrate
     23      H    -6.26992000    -1.45816300    -1.94548900       region=pdsubstrate adf.f=pdsubstrate
     24      C    -3.54482800    -0.90525900    -1.71065100       region=pdsubstrate adf.f=pdsubstrate
     25      H    -4.00554500    -1.88641200    -1.81286400       region=pdsubstrate adf.f=pdsubstrate
     26      C    -2.28368500    -0.80355100    -1.09435300       region=pdsubstrate adf.f=pdsubstrate
     27      C    -1.59085900    -2.04688100    -0.68171500       region=pdsubstrate adf.f=pdsubstrate
     28      C    -2.25657900    -3.10062100    -0.05596400       region=pdsubstrate adf.f=pdsubstrate
     29      C    -1.61298500    -4.29205000     0.27165400       region=pdsubstrate adf.f=pdsubstrate
     30      C    -0.26679000    -4.44727000    -0.04051300       region=pdsubstrate adf.f=pdsubstrate
     31      C     0.42393600    -3.40097600    -0.64371800       region=pdsubstrate adf.f=pdsubstrate
     32      C    -0.20645500    -2.19231000    -0.95012600       region=pdsubstrate adf.f=pdsubstrate
     33      C     0.04531100     0.16954200    -3.77648700       region=pdsubstrate adf.f=pdsubstrate
     34      H     0.24475500     0.01009300    -4.84401000       region=pdsubstrate adf.f=pdsubstrate
     35      H    -1.00822100    -0.01948900    -3.53280400       region=pdsubstrate adf.f=pdsubstrate
     36      C     2.19340600     1.64494400     2.34609200       region=ligand adf.f=ligand
     37      H     2.91332700     1.39752700     3.14216400       region=ligand adf.f=ligand
     38      H     2.52747800     2.59728500     1.90439400       region=ligand adf.f=ligand
     39      C     0.77981700     1.77924500     2.89729700       region=ligand adf.f=ligand
     40      H     0.67280000     2.66605200     3.54166100       region=ligand adf.f=ligand
     41      H     0.53019400     0.90736800     3.52194500       region=ligand adf.f=ligand
     42      C     3.83810900     0.88861500     0.08193200       region=ligand adf.f=ligand
     43      C     4.49349900    -0.28661900    -0.64927900       region=ligand adf.f=ligand
     44      C     3.50050800     2.02680800    -0.88926600       region=ligand adf.f=ligand
     45      H     4.53683300     1.26595600     0.85417200       region=ligand adf.f=ligand
     46      C     5.69869900     0.17284200    -1.46535000       region=ligand adf.f=ligand
     47      H     3.75569700    -0.74156800    -1.32797400       region=ligand adf.f=ligand
     48      H     4.81067500    -1.05881500     0.06764500       region=ligand adf.f=ligand
     49      C     4.71502700     2.46627800    -1.69788600       region=ligand adf.f=ligand
     50      H     2.71973100     1.66801000    -1.57949100       region=ligand adf.f=ligand
     51      H     3.07449700     2.88538100    -0.34401400       region=ligand adf.f=ligand
     52      C     5.32955600     1.28543900    -2.43859100       region=ligand adf.f=ligand
     53      H     6.11751900    -0.68928200    -2.00839700       region=ligand adf.f=ligand
     54      H     6.49348800     0.53006200    -0.78339500       region=ligand adf.f=ligand
     55      H     4.41633500     3.25596800    -2.40625000       region=ligand adf.f=ligand
     56      H     5.46850200     2.91610600    -1.02455600       region=ligand adf.f=ligand
     57      H     6.21614600     1.60743700    -3.00861500       region=ligand adf.f=ligand
     58      H     4.59649700     0.89541100    -3.16412200       region=ligand adf.f=ligand
     59      C     2.61297300    -1.24412400     1.71804000       region=ligand adf.f=ligand
     60      C     3.81035800    -1.31068000     2.66527400       region=ligand adf.f=ligand
     61      C     1.37150900    -1.84336600     2.38177400       region=ligand adf.f=ligand
     62      H     2.82741900    -1.85763200     0.82373200       region=ligand adf.f=ligand
     63      C     4.07471100    -2.75148500     3.09738900       region=ligand adf.f=ligand
     64      H     3.59994500    -0.69838500     3.56099800       region=ligand adf.f=ligand
     65      H     4.71088100    -0.88245200     2.19811500       region=ligand adf.f=ligand
     66      C     1.62743200    -3.28444200     2.80962800       region=ligand adf.f=ligand
     67      H     1.10998900    -1.24580700     3.27402000       region=ligand adf.f=ligand
     68      H     0.50954700    -1.78689900     1.69971100       region=ligand adf.f=ligand
     69      C     2.83978900    -3.38581200     3.72851800       region=ligand adf.f=ligand
     70      H     4.92586300    -2.78540200     3.79652500       region=ligand adf.f=ligand
     71      H     4.37444200    -3.33867100     2.21131000       region=ligand adf.f=ligand
     72      H     0.73164400    -3.69458500     3.30326200       region=ligand adf.f=ligand
     73      H     1.79208100    -3.90105000     1.90971900       region=ligand adf.f=ligand
     74      H     3.03972700    -4.43826000     3.98539700       region=ligand adf.f=ligand
     75      H     2.61627800    -2.87097400     4.68102600       region=ligand adf.f=ligand
     76      C    -2.02899400     1.25113100     2.47831000       region=ligand adf.f=ligand
     77      C    -3.33998000     1.69166900     1.82185500       region=ligand adf.f=ligand
     78      C    -1.98653600    -0.27188700     2.64884800       region=ligand adf.f=ligand
     79      H    -1.95989600     1.72357200     3.47762600       region=ligand adf.f=ligand
     80      C    -4.55149900     1.14972600     2.57396500       region=ligand adf.f=ligand
     81      H    -3.36588800     1.32281500     0.78531100       region=ligand adf.f=ligand
     82      H    -3.39665900     2.79017000     1.76782500       region=ligand adf.f=ligand
     83      C    -3.21366200    -0.81103000     3.37474100       region=ligand adf.f=ligand
     84      H    -1.92527100    -0.72751100     1.64684000       region=ligand adf.f=ligand
     85      H    -1.07319800    -0.57669400     3.18164000       region=ligand adf.f=ligand
     86      C    -4.50056500    -0.36776200     2.69236100       region=ligand adf.f=ligand
     87      H    -5.47141800     1.46776600     2.05797400       region=ligand adf.f=ligand
     88      H    -4.59012600     1.59507000     3.58530500       region=ligand adf.f=ligand
     89      H    -3.15699300    -1.91058300     3.41554900       region=ligand adf.f=ligand
     90      H    -3.21052700    -0.45633300     4.42173400       region=ligand adf.f=ligand
     91      H    -5.37758000    -0.74191700     3.24434900       region=ligand adf.f=ligand
     92      H    -4.54492000    -0.81670600     1.68474800       region=ligand adf.f=ligand
     93      C    -0.78866700     3.56303000     1.09504500       region=ligand adf.f=ligand
     94      C    -1.04398800     4.52166000     2.25685700       region=ligand adf.f=ligand
     95      C     0.32956900     4.07546900     0.18415400       region=ligand adf.f=ligand
     96      H    -1.70932400     3.50745500     0.48671100       region=ligand adf.f=ligand
     97      C    -1.35859100     5.92368700     1.73917900       region=ligand adf.f=ligand
     98      H    -0.14569900     4.56970300     2.89772300       region=ligand adf.f=ligand
     99      H    -1.86583600     4.15711500     2.89403800       region=ligand adf.f=ligand
    100      C     0.01254500     5.47526900    -0.32927300       region=ligand adf.f=ligand
    101      H     1.27731000     4.10529200     0.75104400       region=ligand adf.f=ligand
    102      H     0.48924900     3.37281000    -0.64987000       region=ligand adf.f=ligand
    103      C    -0.25983700     6.44260500     0.81755200       region=ligand adf.f=ligand
    104      H    -1.50909000     6.61178500     2.58647000       region=ligand adf.f=ligand
    105      H    -2.31561100     5.89543700     1.18798500       region=ligand adf.f=ligand
    106      H     0.84017800     5.84138000    -0.95728500       region=ligand adf.f=ligand
    107      H    -0.87472600     5.42301400    -0.98565900       region=ligand adf.f=ligand
    108      H    -0.52749900     7.43727300     0.42690600       region=ligand adf.f=ligand
    109      H     0.66781200     6.57941300     1.40277100       region=ligand adf.f=ligand
 
Total System Charge             0.00000
Bonding info available!
 
 
----------------
ADF Engine Input
----------------
 
 Basis
 Type TZP
 Core None
 End
 Fragments
 ligand ./gs_dcype.ligand.results/adf.rkf
 pdsubstrate ./gs_dcype.pdsubstrate.results/adf.rkf
 End
 XC
 Hybrid PBE0
 DISPERSION Grimme3 BJDAMP
 End
 NumericalQuality VeryGood
 

 Title: *** (NO TITLE) ***

 *** adf ***



 ===========================
 A T T A C H E D   F I L E S
 ===========================
  



 ===============================
 M O D E L   P A R A M E T E R S
 ===============================
  
 DENSITY FUNCTIONAL POTENTIAL (scf)
    Hybrid:                            PBE0                                    == Not Default ==

 SPIN  (restricted / unrestr.)
    Molecule:                          Restricted                               
    Fragments:                         Restricted                               

 OTHER ASPECTS
    Relativistic Corrections:          scalar (ZORA,MAPA)                       

    Nuclear Charge Density Model:      Point Charge Nuclei                      
    Core Treatment:                    Frozen Orbital(s)                        

    Hyperfine or Zeeman Interaction:   ---                                      

 Settings for Grimme D3 dispersion correction

      damping                        BJ
      s6                          1.000
      s8                          1.218
      a1                          0.414
      a2                          4.859

 Other (technical) parameters

      alpha                      14.000
      version                         4
 


 Fragment File(s)
 ----------------
 pdsubstrate:
         file : ./gs_dcype.pdsubstrate.results/adf.rkf
         jobid: 110193195
         title: *** adf ***
 ligand:
         file : ./gs_dcype.ligand.results/adf.rkf
         jobid: 1441132220
         title: *** adf ***



 ===============
 G E O M E T R Y  ***  3D  Molecule  ***
 ===============
  

 ATOMS
 =====                            X Y Z                    CHARGE
                                (Angstrom)             Nucl     +Core       At.Mass
                       --------------------------    ----------------       -------
    1  Pd              0.1990    0.4783   -0.1111     46.00     46.00      105.9035
    2  Cl              0.4595    1.8365   -3.3602     17.00     17.00       34.9689
    3  S               1.0700   -1.0640   -2.9219     16.00     16.00       31.9721
    4  P              -0.5117    1.8029    1.5630     15.00     15.00       30.9738
    5  P               2.2848    0.4085    0.9660     15.00     15.00       30.9738
    6  F              -3.5443   -2.9948    0.2814      9.00      9.00       18.9984
    7  F              -2.2707   -5.2639    0.8870      9.00      9.00       18.9984
    8  F               0.3664   -5.5616    0.2932      9.00      9.00       18.9984
    9  F               1.7262   -3.5471   -0.8479      9.00      9.00       18.9984
   10  O               2.4286   -0.5294   -2.9941      8.00      8.00       15.9949
   11  O               0.7407   -2.3166   -3.6010      8.00      8.00       15.9949
   12  O              -5.3936    0.2207   -2.8083      8.00      8.00       15.9949
   13  N               0.5738   -1.1185   -1.3862      7.00      7.00       14.0031
   14  C              -1.6535    0.4451   -0.9467      6.00      6.00       12.0000
   15  C              -2.3017    1.5624   -1.4911      6.00      6.00       12.0000
   16  H              -1.8227    2.5431   -1.4436      1.00      1.00        1.0078
   17  C              -3.5410    1.4718   -2.1137      6.00      6.00       12.0000
   18  H              -4.0376    2.3497   -2.5321      1.00      1.00        1.0078
   19  C              -4.1825    0.2310   -2.2097      6.00      6.00       12.0000
   20  C              -6.0694   -0.9985   -2.9298      6.00      6.00       12.0000
   21  H              -5.5078   -1.7221   -3.5473      1.00      1.00        1.0078
   22  H              -7.0260   -0.7815   -3.4222      1.00      1.00        1.0078
   23  H              -6.2699   -1.4582   -1.9455      1.00      1.00        1.0078
   24  C              -3.5448   -0.9053   -1.7107      6.00      6.00       12.0000
   25  H              -4.0055   -1.8864   -1.8129      1.00      1.00        1.0078
   26  C              -2.2837   -0.8036   -1.0944      6.00      6.00       12.0000
   27  C              -1.5909   -2.0469   -0.6817      6.00      6.00       12.0000
   28  C              -2.2566   -3.1006   -0.0560      6.00      6.00       12.0000
   29  C              -1.6130   -4.2920    0.2717      6.00      6.00       12.0000
   30  C              -0.2668   -4.4473   -0.0405      6.00      6.00       12.0000
   31  C               0.4239   -3.4010   -0.6437      6.00      6.00       12.0000
   32  C              -0.2065   -2.1923   -0.9501      6.00      6.00       12.0000
   33  C               0.0453    0.1695   -3.7765      6.00      6.00       12.0000
   34  H               0.2448    0.0101   -4.8440      1.00      1.00        1.0078
   35  H              -1.0082   -0.0195   -3.5328      1.00      1.00        1.0078
   36  C               2.1934    1.6449    2.3461      6.00      6.00       12.0000
   37  H               2.9133    1.3975    3.1422      1.00      1.00        1.0078
   38  H               2.5275    2.5973    1.9044      1.00      1.00        1.0078
   39  C               0.7798    1.7792    2.8973      6.00      6.00       12.0000
   40  H               0.6728    2.6661    3.5417      1.00      1.00        1.0078
   41  H               0.5302    0.9074    3.5219      1.00      1.00        1.0078
   42  C               3.8381    0.8886    0.0819      6.00      6.00       12.0000
   43  C               4.4935   -0.2866   -0.6493      6.00      6.00       12.0000
   44  C               3.5005    2.0268   -0.8893      6.00      6.00       12.0000
   45  H               4.5368    1.2660    0.8542      1.00      1.00        1.0078
   46  C               5.6987    0.1728   -1.4653      6.00      6.00       12.0000
   47  H               3.7557   -0.7416   -1.3280      1.00      1.00        1.0078
   48  H               4.8107   -1.0588    0.0676      1.00      1.00        1.0078
   49  C               4.7150    2.4663   -1.6979      6.00      6.00       12.0000
   50  H               2.7197    1.6680   -1.5795      1.00      1.00        1.0078
   51  H               3.0745    2.8854   -0.3440      1.00      1.00        1.0078
   52  C               5.3296    1.2854   -2.4386      6.00      6.00       12.0000
   53  H               6.1175   -0.6893   -2.0084      1.00      1.00        1.0078
   54  H               6.4935    0.5301   -0.7834      1.00      1.00        1.0078
   55  H               4.4163    3.2560   -2.4062      1.00      1.00        1.0078
   56  H               5.4685    2.9161   -1.0246      1.00      1.00        1.0078
   57  H               6.2161    1.6074   -3.0086      1.00      1.00        1.0078
   58  H               4.5965    0.8954   -3.1641      1.00      1.00        1.0078
   59  C               2.6130   -1.2441    1.7180      6.00      6.00       12.0000
   60  C               3.8104   -1.3107    2.6653      6.00      6.00       12.0000
   61  C               1.3715   -1.8434    2.3818      6.00      6.00       12.0000
   62  H               2.8274   -1.8576    0.8237      1.00      1.00        1.0078
   63  C               4.0747   -2.7515    3.0974      6.00      6.00       12.0000
   64  H               3.5999   -0.6984    3.5610      1.00      1.00        1.0078
   65  H               4.7109   -0.8825    2.1981      1.00      1.00        1.0078
   66  C               1.6274   -3.2844    2.8096      6.00      6.00       12.0000
   67  H               1.1100   -1.2458    3.2740      1.00      1.00        1.0078
   68  H               0.5095   -1.7869    1.6997      1.00      1.00        1.0078
   69  C               2.8398   -3.3858    3.7285      6.00      6.00       12.0000
   70  H               4.9259   -2.7854    3.7965      1.00      1.00        1.0078
   71  H               4.3744   -3.3387    2.2113      1.00      1.00        1.0078
   72  H               0.7316   -3.6946    3.3033      1.00      1.00        1.0078
   73  H               1.7921   -3.9010    1.9097      1.00      1.00        1.0078
   74  H               3.0397   -4.4383    3.9854      1.00      1.00        1.0078
   75  H               2.6163   -2.8710    4.6810      1.00      1.00        1.0078
   76  C              -2.0290    1.2511    2.4783      6.00      6.00       12.0000
   77  C              -3.3400    1.6917    1.8219      6.00      6.00       12.0000
   78  C              -1.9865   -0.2719    2.6488      6.00      6.00       12.0000
   79  H              -1.9599    1.7236    3.4776      1.00      1.00        1.0078
   80  C              -4.5515    1.1497    2.5740      6.00      6.00       12.0000
   81  H              -3.3659    1.3228    0.7853      1.00      1.00        1.0078
   82  H              -3.3967    2.7902    1.7678      1.00      1.00        1.0078
   83  C              -3.2137   -0.8110    3.3747      6.00      6.00       12.0000
   84  H              -1.9253   -0.7275    1.6468      1.00      1.00        1.0078
   85  H              -1.0732   -0.5767    3.1816      1.00      1.00        1.0078
   86  C              -4.5006   -0.3678    2.6924      6.00      6.00       12.0000
   87  H              -5.4714    1.4678    2.0580      1.00      1.00        1.0078
   88  H              -4.5901    1.5951    3.5853      1.00      1.00        1.0078
   89  H              -3.1570   -1.9106    3.4155      1.00      1.00        1.0078
   90  H              -3.2105   -0.4563    4.4217      1.00      1.00        1.0078
   91  H              -5.3776   -0.7419    3.2443      1.00      1.00        1.0078
   92  H              -4.5449   -0.8167    1.6847      1.00      1.00        1.0078
   93  C              -0.7887    3.5630    1.0950      6.00      6.00       12.0000
   94  C              -1.0440    4.5217    2.2569      6.00      6.00       12.0000
   95  C               0.3296    4.0755    0.1842      6.00      6.00       12.0000
   96  H              -1.7093    3.5075    0.4867      1.00      1.00        1.0078
   97  C              -1.3586    5.9237    1.7392      6.00      6.00       12.0000
   98  H              -0.1457    4.5697    2.8977      1.00      1.00        1.0078
   99  H              -1.8658    4.1571    2.8940      1.00      1.00        1.0078
  100  C               0.0125    5.4753   -0.3293      6.00      6.00       12.0000
  101  H               1.2773    4.1053    0.7510      1.00      1.00        1.0078
  102  H               0.4892    3.3728   -0.6499      1.00      1.00        1.0078
  103  C              -0.2598    6.4426    0.8176      6.00      6.00       12.0000
  104  H              -1.5091    6.6118    2.5865      1.00      1.00        1.0078
  105  H              -2.3156    5.8954    1.1880      1.00      1.00        1.0078
  106  H               0.8402    5.8414   -0.9573      1.00      1.00        1.0078
  107  H              -0.8747    5.4230   -0.9857      1.00      1.00        1.0078
  108  H              -0.5275    7.4373    0.4269      1.00      1.00        1.0078
  109  H               0.6678    6.5794    1.4028      1.00      1.00        1.0078


 FRAGMENTS
 =========                                     Atoms in this Fragment     Cart. coord.s (Angstrom)
                                               -------------------------------------------------------
    1  pdsubstrate                                       1  Pd           0.1990    0.4783   -0.1111
                                                         2  Cl           0.4595    1.8365   -3.3602
                                                         3  S            1.0700   -1.0640   -2.9219
                                                        34  H            0.2448    0.0101   -4.8440
                                                        35  H           -1.0082   -0.0195   -3.5328
                                                        16  H           -1.8227    2.5431   -1.4436
                                                        18  H           -4.0376    2.3497   -2.5321
                                                        21  H           -5.5078   -1.7221   -3.5473
                                                        22  H           -7.0260   -0.7815   -3.4222
                                                        23  H           -6.2699   -1.4582   -1.9455
                                                        25  H           -4.0055   -1.8864   -1.8129
                                                         6  F           -3.5443   -2.9948    0.2814
                                                         7  F           -2.2707   -5.2639    0.8870
                                                         8  F            0.3664   -5.5616    0.2932
                                                         9  F            1.7262   -3.5471   -0.8479
                                                        10  O            2.4286   -0.5294   -2.9941
                                                        11  O            0.7407   -2.3166   -3.6010
                                                        12  O           -5.3936    0.2207   -2.8083
                                                        13  N            0.5738   -1.1185   -1.3862
                                                        14  C           -1.6535    0.4451   -0.9467
                                                        15  C           -2.3017    1.5624   -1.4911
                                                        17  C           -3.5410    1.4718   -2.1137
                                                        19  C           -4.1825    0.2310   -2.2097
                                                        20  C           -6.0694   -0.9985   -2.9298
                                                        24  C           -3.5448   -0.9053   -1.7107
                                                        26  C           -2.2837   -0.8036   -1.0944
                                                        27  C           -1.5909   -2.0469   -0.6817
                                                        28  C           -2.2566   -3.1006   -0.0560
                                                        29  C           -1.6130   -4.2920    0.2717
                                                        30  C           -0.2668   -4.4473   -0.0405
                                                        31  C            0.4239   -3.4010   -0.6437
                                                        32  C           -0.2065   -2.1923   -0.9501
                                                        33  C            0.0453    0.1695   -3.7765
    2  ligand                                           77  C           -3.3400    1.6917    1.8219
                                                        78  C           -1.9865   -0.2719    2.6488
                                                        80  C           -4.5515    1.1497    2.5740
                                                        83  C           -3.2137   -0.8110    3.3747
                                                        86  C           -4.5006   -0.3678    2.6924
                                                        93  C           -0.7887    3.5630    1.0950
                                                        94  C           -1.0440    4.5217    2.2569
                                                        95  C            0.3296    4.0755    0.1842
                                                        97  C           -1.3586    5.9237    1.7392
                                                       100  C            0.0125    5.4753   -0.3293
                                                       103  C           -0.2598    6.4426    0.8176
                                                        36  C            2.1934    1.6449    2.3461
                                                        39  C            0.7798    1.7792    2.8973
                                                        42  C            3.8381    0.8886    0.0819
                                                        43  C            4.4935   -0.2866   -0.6493
                                                        44  C            3.5005    2.0268   -0.8893
                                                        46  C            5.6987    0.1728   -1.4653
                                                        49  C            4.7150    2.4663   -1.6979
                                                        52  C            5.3296    1.2854   -2.4386
                                                        59  C            2.6130   -1.2441    1.7180
                                                        60  C            3.8104   -1.3107    2.6653
                                                        61  C            1.3715   -1.8434    2.3818
                                                        63  C            4.0747   -2.7515    3.0974
                                                        66  C            1.6274   -3.2844    2.8096
                                                        69  C            2.8398   -3.3858    3.7285
                                                        76  C           -2.0290    1.2511    2.4783
                                                        79  H           -1.9599    1.7236    3.4776
                                                        81  H           -3.3659    1.3228    0.7853
                                                        82  H           -3.3967    2.7902    1.7678
                                                        84  H           -1.9253   -0.7275    1.6468
                                                        85  H           -1.0732   -0.5767    3.1816
                                                        87  H           -5.4714    1.4678    2.0580
                                                        88  H           -4.5901    1.5951    3.5853
                                                        89  H           -3.1570   -1.9106    3.4155
                                                        90  H           -3.2105   -0.4563    4.4217
                                                        91  H           -5.3776   -0.7419    3.2443
                                                        92  H           -4.5449   -0.8167    1.6847
                                                        96  H           -1.7093    3.5075    0.4867
                                                        98  H           -0.1457    4.5697    2.8977
                                                        99  H           -1.8658    4.1571    2.8940
                                                       101  H            1.2773    4.1053    0.7510
                                                       102  H            0.4892    3.3728   -0.6499
                                                       104  H           -1.5091    6.6118    2.5865
                                                       105  H           -2.3156    5.8954    1.1880
                                                       106  H            0.8402    5.8414   -0.9573
                                                       107  H           -0.8747    5.4230   -0.9857
                                                       108  H           -0.5275    7.4373    0.4269
                                                       109  H            0.6678    6.5794    1.4028
                                                        37  H            2.9133    1.3975    3.1422
                                                        38  H            2.5275    2.5973    1.9044
                                                        40  H            0.6728    2.6661    3.5417
                                                        41  H            0.5302    0.9074    3.5219
                                                        45  H            4.5368    1.2660    0.8542
                                                        47  H            3.7557   -0.7416   -1.3280
                                                        48  H            4.8107   -1.0588    0.0676
                                                        50  H            2.7197    1.6680   -1.5795
                                                        51  H            3.0745    2.8854   -0.3440
                                                        53  H            6.1175   -0.6893   -2.0084
                                                        54  H            6.4935    0.5301   -0.7834
                                                        55  H            4.4163    3.2560   -2.4062
                                                        56  H            5.4685    2.9161   -1.0246
                                                        57  H            6.2161    1.6074   -3.0086
                                                        58  H            4.5965    0.8954   -3.1641
                                                        62  H            2.8274   -1.8576    0.8237
                                                        64  H            3.5999   -0.6984    3.5610
                                                        65  H            4.7109   -0.8825    2.1981
                                                        67  H            1.1100   -1.2458    3.2740
                                                        68  H            0.5095   -1.7869    1.6997
                                                        70  H            4.9259   -2.7854    3.7965
                                                        71  H            4.3744   -3.3387    2.2113
                                                        72  H            0.7316   -3.6946    3.3033
                                                        73  H            1.7921   -3.9010    1.9097
                                                        74  H            3.0397   -4.4383    3.9854
                                                        75  H            2.6163   -2.8710    4.6810
                                                         4  P           -0.5117    1.8029    1.5630
                                                         5  P            2.2848    0.4085    0.9660



 =====================================
 S Y M M E T R Y ,   E L E C T R O N S
 =====================================
  
 Symmetry: NOSYM

 Irreducible Representations, including subspecies
 -------------------------------------------------
 A


 Configuration of Valence Electrons
 ==================================
 ( determined in the SCF procedure )

 Total:   472

 Net Charge: 0 (Nuclei minus Electrons)

 Aufbau principle for MO occupations will be applied through SCF cycle no.     150
 Thereafter, the program will assign electrons to MOs that are spatially
 similar to the occupied MOs in a "reference" cycle ("KeepOrbitals").
 The reference cycle is always the PREVIOUS cycle: it will evolve with
 the SCF procedure.
1
 ***************************************************************************************************



                                      ****************************************
                                      *  B U I L D : (Fragments, Functions)  *
                                      ****************************************
  

 The individual fragments are copies of the corresponding 'Master' fragments defined on the fragment files.
 However, they may have been rotated (and translated) with respect to the Master. The local coordinate axes
 of each fragment (which define for instance the spatial orientation in the current molecule of a fragment
 P:x orbital) are not necessarily those of the molecule.
 The local frame (if different from the molecular one) is printed to enable an interpretation of the expan-
 sion of an MO in Fragment Orbitals.



                                         *********************************
                                         *  Fragment Type : pdsubstrate  *
                                         *********************************
  

 Fragment no.    1   (in the list of all fragments)
 -----------------
 The local coordinate frame is identical to the molecular frame.

 Check Atomic Coordinates:

                  Master (on file)          After Computed Tranformation               As specified on Input
           ----------------------------     ----------------------------     ---------------------------------
     1)     0.19904   0.47831  -0.11107      0.19904   0.47831  -0.11107       1   0.19904   0.47831  -0.11107
     2)     0.45954   1.83646  -3.36023      0.45954   1.83646  -3.36023       2   0.45954   1.83646  -3.36023
     3)     1.07001  -1.06404  -2.92188      1.07001  -1.06404  -2.92188       3   1.07001  -1.06404  -2.92188
     4)     0.24476   0.01009  -4.84401      0.24476   0.01009  -4.84401      34   0.24476   0.01009  -4.84401
     5)    -1.00822  -0.01949  -3.53280     -1.00822  -0.01949  -3.53280      35  -1.00822  -0.01949  -3.53280
     6)    -1.82269   2.54306  -1.44357     -1.82269   2.54306  -1.44357      16  -1.82269   2.54306  -1.44357
     7)    -4.03763   2.34966  -2.53215     -4.03763   2.34966  -2.53215      18  -4.03763   2.34966  -2.53215
     8)    -5.50782  -1.72214  -3.54728     -5.50782  -1.72214  -3.54728      21  -5.50782  -1.72214  -3.54728
     9)    -7.02595  -0.78152  -3.42221     -7.02595  -0.78152  -3.42221      22  -7.02595  -0.78152  -3.42221
    10)    -6.26992  -1.45816  -1.94549     -6.26992  -1.45816  -1.94549      23  -6.26992  -1.45816  -1.94549
    11)    -4.00554  -1.88641  -1.81286     -4.00554  -1.88641  -1.81286      25  -4.00554  -1.88641  -1.81286
    12)    -3.54426  -2.99480   0.28140     -3.54426  -2.99480   0.28140       6  -3.54426  -2.99480   0.28140
    13)    -2.27067  -5.26390   0.88696     -2.27067  -5.26390   0.88696       7  -2.27067  -5.26390   0.88696
    14)     0.36641  -5.56163   0.29322      0.36641  -5.56163   0.29322       8   0.36641  -5.56163   0.29322
    15)     1.72617  -3.54710  -0.84789      1.72617  -3.54710  -0.84789       9   1.72617  -3.54710  -0.84789
    16)     2.42864  -0.52940  -2.99406      2.42864  -0.52940  -2.99406      10   2.42864  -0.52940  -2.99406
    17)     0.74074  -2.31659  -3.60097      0.74074  -2.31659  -3.60097      11   0.74074  -2.31659  -3.60097
    18)    -5.39359   0.22068  -2.80832     -5.39359   0.22068  -2.80832      12  -5.39359   0.22068  -2.80832
    19)     0.57376  -1.11847  -1.38622      0.57376  -1.11847  -1.38622      13   0.57376  -1.11847  -1.38622
    20)    -1.65347   0.44510  -0.94673     -1.65347   0.44510  -0.94673      14  -1.65347   0.44510  -0.94673
    21)    -2.30174   1.56238  -1.49110     -2.30174   1.56238  -1.49110      15  -2.30174   1.56238  -1.49110
    22)    -3.54101   1.47176  -2.11367     -3.54101   1.47176  -2.11367      17  -3.54101   1.47176  -2.11367
    23)    -4.18253   0.23099  -2.20970     -4.18253   0.23099  -2.20970      19  -4.18253   0.23099  -2.20970
    24)    -6.06935  -0.99847  -2.92985     -6.06935  -0.99847  -2.92985      20  -6.06935  -0.99847  -2.92985
    25)    -3.54483  -0.90526  -1.71065     -3.54483  -0.90526  -1.71065      24  -3.54483  -0.90526  -1.71065
    26)    -2.28369  -0.80355  -1.09435     -2.28369  -0.80355  -1.09435      26  -2.28369  -0.80355  -1.09435
    27)    -1.59086  -2.04688  -0.68171     -1.59086  -2.04688  -0.68171      27  -1.59086  -2.04688  -0.68171
    28)    -2.25658  -3.10062  -0.05596     -2.25658  -3.10062  -0.05596      28  -2.25658  -3.10062  -0.05596
    29)    -1.61298  -4.29205   0.27165     -1.61298  -4.29205   0.27165      29  -1.61298  -4.29205   0.27165
    30)    -0.26679  -4.44727  -0.04051     -0.26679  -4.44727  -0.04051      30  -0.26679  -4.44727  -0.04051
    31)     0.42394  -3.40098  -0.64372      0.42394  -3.40098  -0.64372      31   0.42394  -3.40098  -0.64372
    32)    -0.20645  -2.19231  -0.95013     -0.20645  -2.19231  -0.95013      32  -0.20645  -2.19231  -0.95013
    33)     0.04531   0.16954  -3.77649      0.04531   0.16954  -3.77649      33   0.04531   0.16954  -3.77649



                                            ****************************
                                            *  Fragment Type : ligand  *
                                            ****************************
  

 Fragment no.    2   (in the list of all fragments)
 -----------------
 The local coordinate frame is identical to the molecular frame.

 Check Atomic Coordinates:

                  Master (on file)          After Computed Tranformation               As specified on Input
           ----------------------------     ----------------------------     ---------------------------------
     1)    -3.33998   1.69167   1.82185     -3.33998   1.69167   1.82185      77  -3.33998   1.69167   1.82185
     2)    -1.98654  -0.27189   2.64885     -1.98654  -0.27189   2.64885      78  -1.98654  -0.27189   2.64885
     3)    -4.55150   1.14973   2.57396     -4.55150   1.14973   2.57396      80  -4.55150   1.14973   2.57396
     4)    -3.21366  -0.81103   3.37474     -3.21366  -0.81103   3.37474      83  -3.21366  -0.81103   3.37474
     5)    -4.50056  -0.36776   2.69236     -4.50056  -0.36776   2.69236      86  -4.50056  -0.36776   2.69236
     6)    -0.78867   3.56303   1.09505     -0.78867   3.56303   1.09505      93  -0.78867   3.56303   1.09505
     7)    -1.04399   4.52166   2.25686     -1.04399   4.52166   2.25686      94  -1.04399   4.52166   2.25686
     8)     0.32957   4.07547   0.18415      0.32957   4.07547   0.18415      95   0.32957   4.07547   0.18415
     9)    -1.35859   5.92369   1.73918     -1.35859   5.92369   1.73918      97  -1.35859   5.92369   1.73918
    10)     0.01255   5.47527  -0.32927      0.01255   5.47527  -0.32927     100   0.01255   5.47527  -0.32927
    11)    -0.25984   6.44261   0.81755     -0.25984   6.44261   0.81755     103  -0.25984   6.44261   0.81755
    12)     2.19341   1.64494   2.34609      2.19341   1.64494   2.34609      36   2.19341   1.64494   2.34609
    13)     0.77982   1.77924   2.89730      0.77982   1.77924   2.89730      39   0.77982   1.77924   2.89730
    14)     3.83811   0.88862   0.08193      3.83811   0.88862   0.08193      42   3.83811   0.88862   0.08193
    15)     4.49350  -0.28662  -0.64928      4.49350  -0.28662  -0.64928      43   4.49350  -0.28662  -0.64928
    16)     3.50051   2.02681  -0.88927      3.50051   2.02681  -0.88927      44   3.50051   2.02681  -0.88927
    17)     5.69870   0.17284  -1.46535      5.69870   0.17284  -1.46535      46   5.69870   0.17284  -1.46535
    18)     4.71503   2.46628  -1.69789      4.71503   2.46628  -1.69789      49   4.71503   2.46628  -1.69789
    19)     5.32956   1.28544  -2.43859      5.32956   1.28544  -2.43859      52   5.32956   1.28544  -2.43859
    20)     2.61297  -1.24412   1.71804      2.61297  -1.24412   1.71804      59   2.61297  -1.24412   1.71804
    21)     3.81036  -1.31068   2.66527      3.81036  -1.31068   2.66527      60   3.81036  -1.31068   2.66527
    22)     1.37151  -1.84337   2.38177      1.37151  -1.84337   2.38177      61   1.37151  -1.84337   2.38177
    23)     4.07471  -2.75149   3.09739      4.07471  -2.75149   3.09739      63   4.07471  -2.75149   3.09739
    24)     1.62743  -3.28444   2.80963      1.62743  -3.28444   2.80963      66   1.62743  -3.28444   2.80963
    25)     2.83979  -3.38581   3.72852      2.83979  -3.38581   3.72852      69   2.83979  -3.38581   3.72852
    26)    -2.02899   1.25113   2.47831     -2.02899   1.25113   2.47831      76  -2.02899   1.25113   2.47831
    27)    -1.95990   1.72357   3.47763     -1.95990   1.72357   3.47763      79  -1.95990   1.72357   3.47763
    28)    -3.36589   1.32282   0.78531     -3.36589   1.32282   0.78531      81  -3.36589   1.32282   0.78531
    29)    -3.39666   2.79017   1.76782     -3.39666   2.79017   1.76782      82  -3.39666   2.79017   1.76782
    30)    -1.92527  -0.72751   1.64684     -1.92527  -0.72751   1.64684      84  -1.92527  -0.72751   1.64684
    31)    -1.07320  -0.57669   3.18164     -1.07320  -0.57669   3.18164      85  -1.07320  -0.57669   3.18164
    32)    -5.47142   1.46777   2.05797     -5.47142   1.46777   2.05797      87  -5.47142   1.46777   2.05797
    33)    -4.59013   1.59507   3.58530     -4.59013   1.59507   3.58530      88  -4.59013   1.59507   3.58530
    34)    -3.15699  -1.91058   3.41555     -3.15699  -1.91058   3.41555      89  -3.15699  -1.91058   3.41555
    35)    -3.21053  -0.45633   4.42173     -3.21053  -0.45633   4.42173      90  -3.21053  -0.45633   4.42173
    36)    -5.37758  -0.74192   3.24435     -5.37758  -0.74192   3.24435      91  -5.37758  -0.74192   3.24435
    37)    -4.54492  -0.81671   1.68475     -4.54492  -0.81671   1.68475      92  -4.54492  -0.81671   1.68475
    38)    -1.70932   3.50746   0.48671     -1.70932   3.50746   0.48671      96  -1.70932   3.50746   0.48671
    39)    -0.14570   4.56970   2.89772     -0.14570   4.56970   2.89772      98  -0.14570   4.56970   2.89772
    40)    -1.86584   4.15712   2.89404     -1.86584   4.15712   2.89404      99  -1.86584   4.15712   2.89404
    41)     1.27731   4.10529   0.75104      1.27731   4.10529   0.75104     101   1.27731   4.10529   0.75104
    42)     0.48925   3.37281  -0.64987      0.48925   3.37281  -0.64987     102   0.48925   3.37281  -0.64987
    43)    -1.50909   6.61179   2.58647     -1.50909   6.61179   2.58647     104  -1.50909   6.61179   2.58647
    44)    -2.31561   5.89544   1.18799     -2.31561   5.89544   1.18799     105  -2.31561   5.89544   1.18799
    45)     0.84018   5.84138  -0.95729      0.84018   5.84138  -0.95729     106   0.84018   5.84138  -0.95729
    46)    -0.87473   5.42301  -0.98566     -0.87473   5.42301  -0.98566     107  -0.87473   5.42301  -0.98566
    47)    -0.52750   7.43727   0.42691     -0.52750   7.43727   0.42691     108  -0.52750   7.43727   0.42691
    48)     0.66781   6.57941   1.40277      0.66781   6.57941   1.40277     109   0.66781   6.57941   1.40277
    49)     2.91333   1.39753   3.14216      2.91333   1.39753   3.14216      37   2.91333   1.39753   3.14216
    50)     2.52748   2.59728   1.90439      2.52748   2.59728   1.90439      38   2.52748   2.59728   1.90439
    51)     0.67280   2.66605   3.54166      0.67280   2.66605   3.54166      40   0.67280   2.66605   3.54166
    52)     0.53019   0.90737   3.52195      0.53019   0.90737   3.52195      41   0.53019   0.90737   3.52195
    53)     4.53683   1.26596   0.85417      4.53683   1.26596   0.85417      45   4.53683   1.26596   0.85417
    54)     3.75570  -0.74157  -1.32797      3.75570  -0.74157  -1.32797      47   3.75570  -0.74157  -1.32797
    55)     4.81067  -1.05882   0.06764      4.81067  -1.05882   0.06764      48   4.81067  -1.05882   0.06764
    56)     2.71973   1.66801  -1.57949      2.71973   1.66801  -1.57949      50   2.71973   1.66801  -1.57949
    57)     3.07450   2.88538  -0.34401      3.07450   2.88538  -0.34401      51   3.07450   2.88538  -0.34401
    58)     6.11752  -0.68928  -2.00840      6.11752  -0.68928  -2.00840      53   6.11752  -0.68928  -2.00840
    59)     6.49349   0.53006  -0.78339      6.49349   0.53006  -0.78339      54   6.49349   0.53006  -0.78339
    60)     4.41634   3.25597  -2.40625      4.41634   3.25597  -2.40625      55   4.41634   3.25597  -2.40625
    61)     5.46850   2.91611  -1.02456      5.46850   2.91611  -1.02456      56   5.46850   2.91611  -1.02456
    62)     6.21615   1.60744  -3.00861      6.21615   1.60744  -3.00861      57   6.21615   1.60744  -3.00861
    63)     4.59650   0.89541  -3.16412      4.59650   0.89541  -3.16412      58   4.59650   0.89541  -3.16412
    64)     2.82742  -1.85763   0.82373      2.82742  -1.85763   0.82373      62   2.82742  -1.85763   0.82373
    65)     3.59994  -0.69839   3.56100      3.59994  -0.69839   3.56100      64   3.59994  -0.69839   3.56100
    66)     4.71088  -0.88245   2.19812      4.71088  -0.88245   2.19812      65   4.71088  -0.88245   2.19812
    67)     1.10999  -1.24581   3.27402      1.10999  -1.24581   3.27402      67   1.10999  -1.24581   3.27402
    68)     0.50955  -1.78690   1.69971      0.50955  -1.78690   1.69971      68   0.50955  -1.78690   1.69971
    69)     4.92586  -2.78540   3.79652      4.92586  -2.78540   3.79652      70   4.92586  -2.78540   3.79652
    70)     4.37444  -3.33867   2.21131      4.37444  -3.33867   2.21131      71   4.37444  -3.33867   2.21131
    71)     0.73164  -3.69459   3.30326      0.73164  -3.69459   3.30326      72   0.73164  -3.69459   3.30326
    72)     1.79208  -3.90105   1.90972      1.79208  -3.90105   1.90972      73   1.79208  -3.90105   1.90972
    73)     3.03973  -4.43826   3.98540      3.03973  -4.43826   3.98540      74   3.03973  -4.43826   3.98540
    74)     2.61628  -2.87097   4.68103      2.61628  -2.87097   4.68103      75   2.61628  -2.87097   4.68103
    75)    -0.51172   1.80292   1.56301     -0.51172   1.80292   1.56301       4  -0.51172   1.80292   1.56301
    76)     2.28483   0.40849   0.96597      2.28483   0.40849   0.96597       5   2.28483   0.40849   0.96597

 Total nr. of (C)SFOs (summation over all irreps) :  1422

 Specify PRINT SFO in the input file to get a full list

 Nr. of SFOs for ir.rep.           A :  1422



 ================================
 (Slater-type)  F U N C T I O N S  ***  (Basis and Fit)  ***
 ================================
  

 Atom Type    1  (Pd)
 ==============

 Valence Basis Sets:  26
 -----------------------
   1 S  306.000000
   1 S   76.400000
   1 S   45.900000
   2 S   53.800000
   2 S   19.550000
   3 S   10.150000
   3 S    6.650000
   4 S    6.150000
   4 S    3.900000
   5 S    2.500000
   5 S    1.450000
   5 S    0.850000
   2 P   29.100000
   2 P   18.750000
   3 P   11.250000
   3 P    8.100000
   4 P    5.950000
   4 P    3.950000
   4 P    2.700000
   3 D   17.550000
   3 D   10.450000
   3 D    6.900000
   4 D    4.250000
   4 D    2.200000
   4 D    1.100000
   5 P    1.450000

 Charge Fitting Sets (for the computation of the Coulomb Potential):  58
 -----------------------------------------------------------------------
   1 S  612.000000
   1 S  446.101000
   1 S  325.174000
   1 S  237.027000
   1 S  172.774000
   1 S  125.939000
   1 S   91.800000
   1 S   53.670000
   2 S   58.190000
   2 S   38.430000
   3 S   37.300000
   3 S   26.280000
   4 S   24.500000
   4 S   18.000000
   5 S   16.470000
   5 S   12.460000
   6 S   11.300000
   6 S    8.740000
   7 S    7.890000
   7 S    6.210000
   8 S    5.590000
   8 S    4.470000
   8 S    3.570000
   9 S    3.210000
   9 S    2.600000
   9 S    2.100000
   9 S    1.700000
   2 P   64.650000
   3 P   49.410000
   4 P   37.530000
   5 P   28.620000
   6 P   21.980000
   6 P   14.500000
   7 P   11.220000
   7 P    7.620000
   8 P    5.940000
   8 P    4.130000
   9 P    3.240000
   9 P    2.300000
   3 D   56.350000
   4 D   37.260000
   5 D   25.120000
   6 D   17.230000
   6 D   10.190000
   7 D    7.110000
   7 D    4.360000
   8 D    3.090000
   8 D    1.950000
   4 F   47.900000
   5 F   28.270000
   6 F   17.190000
   6 F    9.040000
   7 F    5.640000
   7 F    3.100000
   5 G   20.900000
   6 G    9.980000
   7 G    4.980000
   7 G    2.200000

 Atom Type    2  (Cl)
 ==============

 Valence Basis Sets:  13
 -----------------------
   1 S   20.300000
   1 S   15.250000
   2 S    6.250000
   2 S    4.450000
   2 P    8.850000
   2 P    5.050000
   3 S    3.450000
   3 S    2.300000
   3 S    1.600000
   3 P    3.350000
   3 P    2.050000
   3 P    1.200000
   3 D    2.000000

 Charge Fitting Sets (for the computation of the Coulomb Potential):  30
 -----------------------------------------------------------------------
   1 S   40.600000
   1 S   24.830000
   2 S   28.080000
   2 S   19.200000
   3 S   19.250000
   3 S   13.970000
   3 S   10.130000
   4 S    9.710000
   4 S    7.320000
   4 S    5.510000
   5 S    5.170000
   5 S    4.000000
   5 S    3.100000
   5 S    2.400000
   2 P   29.150000
   3 P   21.740000
   4 P   16.160000
   4 P    9.600000
   5 P    7.180000
   5 P    4.480000
   5 P    2.800000
   3 D   21.950000
   4 D   15.750000
   4 D    9.040000
   5 D    6.550000
   5 D    3.960000
   5 D    2.400000
   4 F    5.000000
   4 F    3.000000
   5 G    3.500000

 Atom Type    3  (S)
 ==============

 Valence Basis Sets:  13
 -----------------------
   1 S   19.400000
   1 S   14.350000
   2 S    5.900000
   2 S    4.250000
   2 P    8.050000
   2 P    4.550000
   3 S    3.450000
   3 S    2.250000
   3 S    1.500000
   3 P    2.650000
   3 P    1.600000
   3 P    1.000000
   3 D    2.100000

 Charge Fitting Sets (for the computation of the Coulomb Potential):  30
 -----------------------------------------------------------------------
   1 S   38.800000
   1 S   23.350000
   2 S   26.020000
   2 S   17.570000
   3 S   17.420000
   3 S   12.500000
   3 S    8.980000
   4 S    8.520000
   4 S    6.360000
   4 S    4.750000
   5 S    4.420000
   5 S    3.390000
   5 S    2.600000
   5 S    2.000000
   2 P   27.450000
   3 P   20.250000
   4 P   14.920000
   4 P    8.780000
   5 P    6.520000
   5 P    4.040000
   5 P    2.500000
   3 D   20.900000
   4 D   14.560000
   4 D    8.130000
   5 D    5.740000
   5 D    3.390000
   5 D    2.000000
   4 F    5.000000
   4 F    3.000000
   5 G    3.620000

 Atom Type    4  (H)
 ==============

 Valence Basis Sets:   4
 -----------------------
   1 S    0.690000
   1 S    0.920000
   1 S    1.580000
   2 P    1.250000

 Charge Fitting Sets (for the computation of the Coulomb Potential):  11
 -----------------------------------------------------------------------
   1 S    3.160000
   1 S    2.090000
   1 S    1.380000
   2 S    1.500000
   2 P    4.000000
   2 P    2.650000
   2 P    1.750000
   3 D    4.000000
   3 D    2.500000
   4 F    3.000000
   5 G    4.000000

 Atom Type    5  (F)
 ==============

 Valence Basis Sets:   9
 -----------------------
   1 S   10.880000
   1 S    7.700000
   2 S    3.240000
   2 S    1.940000
   2 S    0.740000
   2 P    4.540000
   2 P    2.300000
   2 P    1.240000
   3 D    2.000000

 Charge Fitting Sets (for the computation of the Coulomb Potential):  23
 -----------------------------------------------------------------------
   1 S   21.760000
   2 S   24.390000
   2 S   16.560000
   2 S   11.240000
   2 S    7.630000
   3 S    7.600000
   3 S    5.480000
   3 S    3.950000
   3 S    2.850000
   3 S    2.050000
   3 S    1.480000
   2 P   14.400000
   2 P    7.530000
   3 P    5.900000
   3 P    3.420000
   3 P    1.980000
   3 D    9.700000
   3 D    6.160000
   3 D    3.910000
   3 D    2.480000
   4 F    6.500000
   4 F    3.750000
   5 G    4.500000

 Atom Type    6  (O)
 ==============

 Valence Basis Sets:   9
 -----------------------
   1 S    9.800000
   1 S    6.800000
   2 S    7.580000
   2 S    2.880000
   2 S    1.720000
   2 P    4.080000
   2 P    2.080000
   2 P    1.120000
   3 D    2.000000

 Charge Fitting Sets (for the computation of the Coulomb Potential):  22
 -----------------------------------------------------------------------
   1 S   19.600000
   2 S   22.600000
   2 S   15.680000
   2 S   10.890000
   2 S    7.560000
   3 S    7.690000
   3 S    5.650000
   3 S    4.150000
   3 S    3.050000
   3 S    2.240000
   2 P   12.860000
   2 P    7.680000
   3 P    6.780000
   3 P    4.390000
   3 P    2.840000
   3 D    8.800000
   3 D    5.580000
   3 D    3.530000
   3 D    2.240000
   4 F    6.200000
   4 F    3.700000
   5 G    4.500000

 Atom Type    7  (N)
 ==============

 Valence Basis Sets:   9
 -----------------------
   1 S    8.740000
   1 S    5.900000
   2 S    5.150000
   2 S    2.500000
   2 S    1.500000
   2 P    3.680000
   2 P    1.880000
   2 P    1.000000
   3 D    2.200000

 Charge Fitting Sets (for the computation of the Coulomb Potential):  22
 -----------------------------------------------------------------------
   1 S   17.480000
   2 S   20.150000
   2 S   13.990000
   2 S    9.710000
   2 S    6.740000
   3 S    6.860000
   3 S    5.040000
   3 S    3.700000
   3 S    2.720000
   3 S    2.000000
   2 P   11.320000
   2 P    6.730000
   3 P    5.920000
   3 P    3.820000
   3 P    2.460000
   3 D    8.100000
   3 D    5.080000
   3 D    3.190000
   3 D    2.000000
   4 F    5.800000
   4 F    3.600000
   5 G    4.500000

 Atom Type    8  (C)
 ==============

 Valence Basis Sets:   9
 -----------------------
   1 S    7.680000
   1 S    5.000000
   2 S    1.280000
   2 S    2.100000
   2 S    4.600000
   2 P    0.820000
   2 P    1.480000
   2 P    2.940000
   3 D    2.200000

 Charge Fitting Sets (for the computation of the Coulomb Potential):  22
 -----------------------------------------------------------------------
   1 S   15.360000
   2 S   17.530000
   2 S   12.070000
   2 S    8.310000
   2 S    5.730000
   3 S    5.780000
   3 S    4.220000
   3 S    3.080000
   3 S    2.250000
   3 S    1.640000
   2 P    9.880000
   2 P    5.800000
   3 P    5.050000
   3 P    3.230000
   3 P    2.060000
   3 D    7.200000
   3 D    4.400000
   3 D    2.690000
   3 D    1.640000
   4 F    5.400000
   4 F    3.550000
   5 G    4.500000

 Atom Type    9  (C)
 ==============

 Valence Basis Sets:   9
 -----------------------
   1 S    7.680000
   1 S    5.000000
   2 S    1.280000
   2 S    2.100000
   2 S    4.600000
   2 P    0.820000
   2 P    1.480000
   2 P    2.940000
   3 D    2.200000

 Charge Fitting Sets (for the computation of the Coulomb Potential):  22
 -----------------------------------------------------------------------
   1 S   15.360000
   2 S   17.530000
   2 S   12.070000
   2 S    8.310000
   2 S    5.730000
   3 S    5.780000
   3 S    4.220000
   3 S    3.080000
   3 S    2.250000
   3 S    1.640000
   2 P    9.880000
   2 P    5.800000
   3 P    5.050000
   3 P    3.230000
   3 P    2.060000
   3 D    7.200000
   3 D    4.400000
   3 D    2.690000
   3 D    1.640000
   4 F    5.400000
   4 F    3.550000
   5 G    4.500000

 Atom Type   10  (H)
 ==============

 Valence Basis Sets:   4
 -----------------------
   1 S    0.690000
   1 S    0.920000
   1 S    1.580000
   2 P    1.250000

 Charge Fitting Sets (for the computation of the Coulomb Potential):  11
 -----------------------------------------------------------------------
   1 S    3.160000
   1 S    2.090000
   1 S    1.380000
   2 S    1.500000
   2 P    4.000000
   2 P    2.650000
   2 P    1.750000
   3 D    4.000000
   3 D    2.500000
   4 F    3.000000
   5 G    4.000000

 Atom Type   11  (P)
 ==============

 Valence Basis Sets:  13
 -----------------------
   1 S   18.000000
   1 S   13.350000
   2 S    5.600000
   2 S    4.050000
   2 P    7.450000
   2 P    4.100000
   3 S    2.700000
   3 S    1.850000
   3 S    1.300000
   3 P    2.300000
   3 P    1.350000
   3 P    0.850000
   3 D    1.900000

 Charge Fitting Sets (for the computation of the Coulomb Potential):  30
 -----------------------------------------------------------------------
   1 S   36.000000
   1 S   21.450000
   2 S   23.670000
   2 S   15.860000
   3 S   15.600000
   3 S   11.130000
   3 S    7.940000
   4 S    7.490000
   4 S    5.560000
   4 S    4.130000
   5 S    3.810000
   5 S    2.910000
   5 S    2.230000
   5 S    1.700000
   2 P   25.450000
   3 P   18.490000
   4 P   13.440000
   4 P    7.810000
   5 P    5.730000
   5 P    3.510000
   5 P    2.150000
   3 D   19.350000
   4 D   13.230000
   4 D    7.250000
   5 D    5.040000
   5 D    2.930000
   5 D    1.700000
   4 F    5.000000
   4 F    3.000000
   5 G    3.750000


 BAS: List of all Elementary Cartesian Basis Functions
 =====================================================

 The numbering in the list below (to the right of the function characteristics) is referred
 to in print-outs of MO eigenvectors and Mulliken populations in the BAS representation
 (as contrasted to the SFO representation).

 Notes:
 1. The functions are characterized by a polynomial prefactor (powers of x,y,z and r) and
    an exponential decay factor alpha.
 2. Since the basis sets are specific for an atom TYPE, the individual functions occur on
    all atoms of that type.
 3. The word 'Core' in the left margin signals that it is a Core Function (CF) : not a
    degree of freedom in the valence set, but only used to ensure orthogonalization of
    the other valence basis functions on the frozen Core Orbitals.


 (power of) X  Y  Z  R     Alpha  on Atom
            ==========     =====     ==========

 Pd                                   1
                                  ---------------------------------------------------------------------------
            0  0  0  0   306.000      1
            0  0  0  0    76.400      2
            0  0  0  0    45.900      3
            0  0  0  1    53.800      4
            0  0  0  1    19.550      5
            0  0  0  2    10.150      6
            0  0  0  2     6.650      7
            0  0  0  3     6.150      8
            0  0  0  3     3.900      9
            0  0  0  4     2.500     10
            0  0  0  4     1.450     11
            0  0  0  4     0.850     12
            1  0  0  0    29.100     13
            0  1  0  0    29.100     14
            0  0  1  0    29.100     15
            1  0  0  0    18.750     16
            0  1  0  0    18.750     17
            0  0  1  0    18.750     18
            1  0  0  1    11.250     19
            0  1  0  1    11.250     20
            0  0  1  1    11.250     21
            1  0  0  1     8.100     22
            0  1  0  1     8.100     23
            0  0  1  1     8.100     24
            1  0  0  2     5.950     25
            0  1  0  2     5.950     26
            0  0  1  2     5.950     27
            1  0  0  2     3.950     28
            0  1  0  2     3.950     29
            0  0  1  2     3.950     30
            1  0  0  2     2.700     31
            0  1  0  2     2.700     32
            0  0  1  2     2.700     33
            2  0  0  0    17.550     34
            1  1  0  0    17.550     35
            1  0  1  0    17.550     36
            0  2  0  0    17.550     37
            0  1  1  0    17.550     38
            0  0  2  0    17.550     39
            2  0  0  0    10.450     40
            1  1  0  0    10.450     41
            1  0  1  0    10.450     42
            0  2  0  0    10.450     43
            0  1  1  0    10.450     44
            0  0  2  0    10.450     45
            2  0  0  0     6.900     46
            1  1  0  0     6.900     47
            1  0  1  0     6.900     48
            0  2  0  0     6.900     49
            0  1  1  0     6.900     50
            0  0  2  0     6.900     51
            2  0  0  1     4.250     52
            1  1  0  1     4.250     53
            1  0  1  1     4.250     54
            0  2  0  1     4.250     55
            0  1  1  1     4.250     56
            0  0  2  1     4.250     57
            2  0  0  1     2.200     58
            1  1  0  1     2.200     59
            1  0  1  1     2.200     60
            0  2  0  1     2.200     61
            0  1  1  1     2.200     62
            0  0  2  1     2.200     63
            2  0  0  1     1.100     64
            1  1  0  1     1.100     65
            1  0  1  1     1.100     66
            0  2  0  1     1.100     67
            0  1  1  1     1.100     68
            0  0  2  1     1.100     69
            1  0  0  3     1.450     70
            0  1  0  3     1.450     71
            0  0  1  3     1.450     72

 Cl                                   2
                                  ---------------------------------------------------------------------------
            0  0  0  0    20.300     73
            0  0  0  0    15.250     74
            0  0  0  1     6.250     75
            0  0  0  1     4.450     76
            1  0  0  0     8.850     77
            0  1  0  0     8.850     78
            0  0  1  0     8.850     79
            1  0  0  0     5.050     80
            0  1  0  0     5.050     81
            0  0  1  0     5.050     82
            0  0  0  2     3.450     83
            0  0  0  2     2.300     84
            0  0  0  2     1.600     85
            1  0  0  1     3.350     86
            0  1  0  1     3.350     87
            0  0  1  1     3.350     88
            1  0  0  1     2.050     89
            0  1  0  1     2.050     90
            0  0  1  1     2.050     91
            1  0  0  1     1.200     92
            0  1  0  1     1.200     93
            0  0  1  1     1.200     94
            2  0  0  0     2.000     95
            1  1  0  0     2.000     96
            1  0  1  0     2.000     97
            0  2  0  0     2.000     98
            0  1  1  0     2.000     99
            0  0  2  0     2.000    100

 S                                    3
                                  ---------------------------------------------------------------------------
            0  0  0  0    19.400    101
            0  0  0  0    14.350    102
            0  0  0  1     5.900    103
            0  0  0  1     4.250    104
            1  0  0  0     8.050    105
            0  1  0  0     8.050    106
            0  0  1  0     8.050    107
            1  0  0  0     4.550    108
            0  1  0  0     4.550    109
            0  0  1  0     4.550    110
            0  0  0  2     3.450    111
            0  0  0  2     2.250    112
            0  0  0  2     1.500    113
            1  0  0  1     2.650    114
            0  1  0  1     2.650    115
            0  0  1  1     2.650    116
            1  0  0  1     1.600    117
            0  1  0  1     1.600    118
            0  0  1  1     1.600    119
            1  0  0  1     1.000    120
            0  1  0  1     1.000    121
            0  0  1  1     1.000    122
            2  0  0  0     2.100    123
            1  1  0  0     2.100    124
            1  0  1  0     2.100    125
            0  2  0  0     2.100    126
            0  1  1  0     2.100    127
            0  0  2  0     2.100    128

 H                                    4    5    6    7    8    9   10   11
                                  ---------------------------------------------------------------------------
            0  0  0  0     0.690    129  135  141  147  153  159  165  171
            0  0  0  0     0.920    130  136  142  148  154  160  166  172
            0  0  0  0     1.580    131  137  143  149  155  161  167  173
            1  0  0  0     1.250    132  138  144  150  156  162  168  174
            0  1  0  0     1.250    133  139  145  151  157  163  169  175
            0  0  1  0     1.250    134  140  146  152  158  164  170  176

 F                                   12   13   14   15
                                  ---------------------------------------------------------------------------
            0  0  0  0    10.880    177  197  217  237
            0  0  0  0     7.700    178  198  218  238
            0  0  0  1     3.240    179  199  219  239
            0  0  0  1     1.940    180  200  220  240
            0  0  0  1     0.740    181  201  221  241
            1  0  0  0     4.540    182  202  222  242
            0  1  0  0     4.540    183  203  223  243
            0  0  1  0     4.540    184  204  224  244
            1  0  0  0     2.300    185  205  225  245
            0  1  0  0     2.300    186  206  226  246
            0  0  1  0     2.300    187  207  227  247
            1  0  0  0     1.240    188  208  228  248
            0  1  0  0     1.240    189  209  229  249
            0  0  1  0     1.240    190  210  230  250
            2  0  0  0     2.000    191  211  231  251
            1  1  0  0     2.000    192  212  232  252
            1  0  1  0     2.000    193  213  233  253
            0  2  0  0     2.000    194  214  234  254
            0  1  1  0     2.000    195  215  235  255
            0  0  2  0     2.000    196  216  236  256

 O                                   16   17   18
                                  ---------------------------------------------------------------------------
            0  0  0  0     9.800    257  277  297
            0  0  0  0     6.800    258  278  298
            0  0  0  1     7.580    259  279  299
            0  0  0  1     2.880    260  280  300
            0  0  0  1     1.720    261  281  301
            1  0  0  0     4.080    262  282  302
            0  1  0  0     4.080    263  283  303
            0  0  1  0     4.080    264  284  304
            1  0  0  0     2.080    265  285  305
            0  1  0  0     2.080    266  286  306
            0  0  1  0     2.080    267  287  307
            1  0  0  0     1.120    268  288  308
            0  1  0  0     1.120    269  289  309
            0  0  1  0     1.120    270  290  310
            2  0  0  0     2.000    271  291  311
            1  1  0  0     2.000    272  292  312
            1  0  1  0     2.000    273  293  313
            0  2  0  0     2.000    274  294  314
            0  1  1  0     2.000    275  295  315
            0  0  2  0     2.000    276  296  316

 N                                   19
                                  ---------------------------------------------------------------------------
            0  0  0  0     8.740    317
            0  0  0  0     5.900    318
            0  0  0  1     5.150    319
            0  0  0  1     2.500    320
            0  0  0  1     1.500    321
            1  0  0  0     3.680    322
            0  1  0  0     3.680    323
            0  0  1  0     3.680    324
            1  0  0  0     1.880    325
            0  1  0  0     1.880    326
            0  0  1  0     1.880    327
            1  0  0  0     1.000    328
            0  1  0  0     1.000    329
            0  0  1  0     1.000    330
            2  0  0  0     2.200    331
            1  1  0  0     2.200    332
            1  0  1  0     2.200    333
            0  2  0  0     2.200    334
            0  1  1  0     2.200    335
            0  0  2  0     2.200    336

 C                                   20   21   22   23   24   25   26   27   28   29   30   31   32   33
                                  ---------------------------------------------------------------------------
            0  0  0  0     7.680    337  357  377  397  417  437  457  477  497  517  537  557  577  597
            0  0  0  0     5.000    338  358  378  398  418  438  458  478  498  518  538  558  578  598
            0  0  0  1     1.280    339  359  379  399  419  439  459  479  499  519  539  559  579  599
            0  0  0  1     2.100    340  360  380  400  420  440  460  480  500  520  540  560  580  600
            0  0  0  1     4.600    341  361  381  401  421  441  461  481  501  521  541  561  581  601
            1  0  0  0     0.820    342  362  382  402  422  442  462  482  502  522  542  562  582  602
            0  1  0  0     0.820    343  363  383  403  423  443  463  483  503  523  543  563  583  603
            0  0  1  0     0.820    344  364  384  404  424  444  464  484  504  524  544  564  584  604
            1  0  0  0     1.480    345  365  385  405  425  445  465  485  505  525  545  565  585  605
            0  1  0  0     1.480    346  366  386  406  426  446  466  486  506  526  546  566  586  606
            0  0  1  0     1.480    347  367  387  407  427  447  467  487  507  527  547  567  587  607
            1  0  0  0     2.940    348  368  388  408  428  448  468  488  508  528  548  568  588  608
            0  1  0  0     2.940    349  369  389  409  429  449  469  489  509  529  549  569  589  609
            0  0  1  0     2.940    350  370  390  410  430  450  470  490  510  530  550  570  590  610
            2  0  0  0     2.200    351  371  391  411  431  451  471  491  511  531  551  571  591  611
            1  1  0  0     2.200    352  372  392  412  432  452  472  492  512  532  552  572  592  612
            1  0  1  0     2.200    353  373  393  413  433  453  473  493  513  533  553  573  593  613
            0  2  0  0     2.200    354  374  394  414  434  454  474  494  514  534  554  574  594  614
            0  1  1  0     2.200    355  375  395  415  435  455  475  495  515  535  555  575  595  615
            0  0  2  0     2.200    356  376  396  416  436  456  476  496  516  536  556  576  596  616

 C                                   34   35   36   37   38   39   40   41   42   43   44   45   46   47   48
                                     49   50   51   52   53   54   55   56   57   58   59
                                  ---------------------------------------------------------------------------
            0  0  0  0     7.680    617  637  657  677  697  717  737  757  777  797  817  837  857  877  897
                                    917  937  957  977  997 1017 1037 1057 1077 1097 1117
            0  0  0  0     5.000    618  638  658  678  698  718  738  758  778  798  818  838  858  878  898
                                    918  938  958  978  998 1018 1038 1058 1078 1098 1118
            0  0  0  1     1.280    619  639  659  679  699  719  739  759  779  799  819  839  859  879  899
                                    919  939  959  979  999 1019 1039 1059 1079 1099 1119
            0  0  0  1     2.100    620  640  660  680  700  720  740  760  780  800  820  840  860  880  900
                                    920  940  960  980 1000 1020 1040 1060 1080 1100 1120
            0  0  0  1     4.600    621  641  661  681  701  721  741  761  781  801  821  841  861  881  901
                                    921  941  961  981 1001 1021 1041 1061 1081 1101 1121
            1  0  0  0     0.820    622  642  662  682  702  722  742  762  782  802  822  842  862  882  902
                                    922  942  962  982 1002 1022 1042 1062 1082 1102 1122
            0  1  0  0     0.820    623  643  663  683  703  723  743  763  783  803  823  843  863  883  903
                                    923  943  963  983 1003 1023 1043 1063 1083 1103 1123
            0  0  1  0     0.820    624  644  664  684  704  724  744  764  784  804  824  844  864  884  904
                                    924  944  964  984 1004 1024 1044 1064 1084 1104 1124
            1  0  0  0     1.480    625  645  665  685  705  725  745  765  785  805  825  845  865  885  905
                                    925  945  965  985 1005 1025 1045 1065 1085 1105 1125
            0  1  0  0     1.480    626  646  666  686  706  726  746  766  786  806  826  846  866  886  906
                                    926  946  966  986 1006 1026 1046 1066 1086 1106 1126
            0  0  1  0     1.480    627  647  667  687  707  727  747  767  787  807  827  847  867  887  907
                                    927  947  967  987 1007 1027 1047 1067 1087 1107 1127
            1  0  0  0     2.940    628  648  668  688  708  728  748  768  788  808  828  848  868  888  908
                                    928  948  968  988 1008 1028 1048 1068 1088 1108 1128
            0  1  0  0     2.940    629  649  669  689  709  729  749  769  789  809  829  849  869  889  909
                                    929  949  969  989 1009 1029 1049 1069 1089 1109 1129
            0  0  1  0     2.940    630  650  670  690  710  730  750  770  790  810  830  850  870  890  910
                                    930  950  970  990 1010 1030 1050 1070 1090 1110 1130
            2  0  0  0     2.200    631  651  671  691  711  731  751  771  791  811  831  851  871  891  911
                                    931  951  971  991 1011 1031 1051 1071 1091 1111 1131
            1  1  0  0     2.200    632  652  672  692  712  732  752  772  792  812  832  852  872  892  912
                                    932  952  972  992 1012 1032 1052 1072 1092 1112 1132
            1  0  1  0     2.200    633  653  673  693  713  733  753  773  793  813  833  853  873  893  913
                                    933  953  973  993 1013 1033 1053 1073 1093 1113 1133
            0  2  0  0     2.200    634  654  674  694  714  734  754  774  794  814  834  854  874  894  914
                                    934  954  974  994 1014 1034 1054 1074 1094 1114 1134
            0  1  1  0     2.200    635  655  675  695  715  735  755  775  795  815  835  855  875  895  915
[...]
     450       13.0981         0.000       
     449       13.0463         0.000       
     448       12.9632         0.000       
     447       12.9114         0.000       
     446       12.8743         0.000       
     445       12.8214         0.000       
     444       12.7460         0.000       
     443       12.6989         0.000       
     442       12.6239         0.000       
     441       12.5470         0.000       
     440       12.4545         0.000       
     439       12.3728         0.000       
     438       12.3245         0.000       
     437       12.2666         0.000       
     436       12.1844         0.000       
     435       12.1178         0.000       
     434       12.0794         0.000       
     433       12.0104         0.000       
     432       11.9464         0.000       
     431       11.8980         0.000       
     430       11.8407         0.000       
     429       11.7622         0.000       
     428       11.6638         0.000       
     427       11.6577         0.000       
     426       11.6340         0.000       
     425       11.5492         0.000       
     424       11.4847         0.000       
     423       11.4797         0.000       
     422       11.4338         0.000       
     421       11.4023         0.000       
     420       11.3305         0.000       
     419       11.2478         0.000       
     418       11.1992         0.000       
     417       11.1018         0.000       
     416       11.0555         0.000       
     415       10.9544         0.000       
     414       10.9307         0.000       
     413       10.8897         0.000       
     412       10.8651         0.000       
     411       10.7989         0.000       
     410       10.7333         0.000       
     409       10.6961         0.000       
     408       10.6301         0.000       
     407       10.5738         0.000       
     406       10.4996         0.000       
     405       10.4891         0.000       
     404       10.4203         0.000       
     403       10.3304         0.000       
     402       10.2211         0.000       
     401       10.1719         0.000       
     400       10.1036         0.000       
     399       10.0768         0.000       
     398       10.0016         0.000       
     397        9.9017         0.000       
     396        9.8847         0.000       
     395        9.8486         0.000       
     394        9.8257         0.000       
     393        9.7516         0.000       
     392        9.7368         0.000       
     391        9.5822         0.000       
     390        9.4246         0.000       
     389        9.3229         0.000       
     388        9.2825         0.000       
     387        9.1766         0.000       
     386        9.1295         0.000       
     385        9.0524         0.000       
     384        8.9546         0.000       
     383        8.8244         0.000       
     382        8.7947         0.000       
     381        8.7392         0.000       
     380        8.7001         0.000       
     379        8.5913         0.000       
     378        8.4322         0.000       
     377        8.3405         0.000       
     376        8.2316         0.000       
     375        8.1691         0.000       
     374        8.1406         0.000       
     373        8.0520         0.000       
     372        8.0492         0.000       
     371        7.8272         0.000       
     370        7.7550         0.000       
     369        7.7326         0.000       
     368        7.6816         0.000       
     367        7.5583         0.000       
     366        7.5391         0.000       
     365        7.5129         0.000       
     364        7.4411         0.000       
     363        7.3767         0.000       
     362        7.3653         0.000       
     361        7.2922         0.000       
     360        7.2286         0.000       
     359        7.1835         0.000       
     358        7.1227         0.000       
     357        6.9915         0.000       
     356        6.9416         0.000       
     355        6.9404         0.000       
     354        6.8966         0.000       
     353        6.8577         0.000       
     352        6.8022         0.000       
     351        6.7406         0.000       
     350        6.6705         0.000       
     349        6.6256         0.000       
     348        6.5943         0.000       
     347        6.5304         0.000       
     346        6.4893         0.000       
     345        6.4527         0.000       
     344        6.4220         0.000       
     343        6.3310         0.000       
     342        6.3156         0.000       
     341        6.2167         0.000       
     340        6.1081         0.000       
     339        6.0779         0.000       
     338        6.0117         0.000       
     337        5.9921         0.000       
     336        5.9760         0.000       
     335        5.8833         0.000       
     334        5.8353         0.000       
     333        5.8233         0.000       
     332        5.7636         0.000       
     331        5.7385         0.000       
     330        5.5856         0.000       
     329        5.5467         0.000       
     328        5.5035         0.000       
     327        5.3989         0.000       
     326        5.3796         0.000       
     325        5.3522         0.000       
     324        5.3025         0.000       
     323        5.2716         0.000       
     322        5.1926         0.000       
     321        5.1075         0.000       
     320        5.0736         0.000       
     319        5.0146         0.000       
     318        4.9861         0.000       
     317        4.9433         0.000       
     316        4.9099         0.000       
     315        4.7732         0.000       
     314        4.7156         0.000       
     313        4.6173         0.000       
     312        4.5880         0.000       
     311        4.4716         0.000       
     310        4.4653         0.000       
     309        4.3954         0.000       
     308        4.2957         0.000       
     307        4.2819         0.000       
     306        4.1811         0.000       
     305        4.1713         0.000       
     304        4.0869         0.000       
     303        4.0215         0.000       
     302        3.9904         0.000       
     301        3.8617         0.000       
     300        3.7992         0.000       
     299        3.7486         0.000       
     298        3.7094         0.000       
     297        3.6134         0.000       
     296        3.6029         0.000       
     295        3.5183         0.000       
     294        3.4720         0.000       
     293        3.3781         0.000       
     292        3.3164         0.000       
     291        3.2690         0.000       
     290        3.1799         0.000       
     289        3.1545         0.000       
     288        3.1063         0.000       
     287        3.0840         0.000       
     286        3.0165         0.000       
     285        2.9752         0.000       
     284        2.9181         0.000       
     283        2.8501         0.000       
     282        2.8212         0.000       
     281        2.8018         0.000       
     280        2.7053         0.000       
     279        2.6259         0.000       
     278        2.5899         0.000       
     277        2.5694         0.000       
     276        2.5204         0.000       
     275        2.4764         0.000       
     274        2.4441         0.000       
     273        2.3440         0.000       
     272        2.2445         0.000       
     271        2.1968         0.000       
     270        2.1601         0.000       
     269        2.1230         0.000       
     268        2.0371         0.000       
     267        1.9720         0.000       
     266        1.8972         0.000       
     265        1.8339         0.000       
     264        1.7724         0.000       
     263        1.7120         0.000       
     262        1.6410         0.000       
     261        1.5712         0.000       
     260        1.5249         0.000       
     259        1.4807         0.000       
     258        1.3471         0.000       
     257        1.2848         0.000       
     256        1.2121         0.000       
     255        1.1333         0.000       
     254        1.0432         0.000       
     253        0.9676         0.000       
     252        0.8972         0.000       
     251        0.8003         0.000       
     250        0.6838         0.000       
     249        0.6479         0.000       
     248        0.5332         0.000       
     247        0.4810         0.000       
     246        0.3940         0.000       
     245        0.2467         0.000       
     244        0.1432         0.000       
     243        0.1249         0.000       
     242        0.0409         0.000       
     241        0.0012         0.000       
     240       -0.1778         0.000       
     239       -0.4004         0.000       
     238       -0.6310         0.000       
     237       -1.1146         0.000 < LUMO
     236       -5.9504         2.000 < HOMO
     235       -6.1395         2.000       
     234       -6.6967         2.000       
     233       -6.8555         2.000       
     232       -6.9879         2.000       
     231       -7.4653         2.000       
     230       -7.5627         2.000       
     229       -7.6741         2.000       
     228       -7.8406         2.000       
     227       -7.8796         2.000       
     226       -8.1481         2.000       
     225       -8.2072         2.000       
     224       -8.3302         2.000       
     223       -8.3617         2.000       
     222       -8.3989         2.000       
     221       -8.5327         2.000       
     220       -8.5994         2.000       
     219       -8.6624         2.000       
     218       -8.6820         2.000       
     217       -8.8211         2.000       
     216       -8.8355         2.000       
     215       -8.9774         2.000       
     214       -9.0568         2.000       
     213       -9.1182         2.000       
     212       -9.1571         2.000       
     211       -9.1916         2.000       
     210       -9.2345         2.000       
     209       -9.3279         2.000       
     208       -9.3672         2.000       
     207       -9.4469         2.000       
     206       -9.4829         2.000       
     205       -9.5767         2.000       
     204       -9.6248         2.000       
     203       -9.6996         2.000       
     202       -9.7315         2.000       
     201       -9.8236         2.000       
     200       -9.9418         2.000       
     199       -9.9633         2.000       
     198      -10.0769         2.000       
     197      -10.1328         2.000       
     196      -10.1707         2.000       
     195      -10.2539         2.000       
     194      -10.3355         2.000       
     193      -10.4027         2.000       
     192      -10.4724         2.000       
     191      -10.5928         2.000       
     190      -10.6551         2.000       
     189      -10.7050         2.000       
     188      -10.8128         2.000       
     187      -10.9012         2.000       
     186      -10.9382         2.000       
     185      -10.9908         2.000       
     184      -11.0875         2.000       
     183      -11.1863         2.000       
     182      -11.2093         2.000       
     181      -11.2676         2.000       
     180      -11.3867         2.000       
     179      -11.5057         2.000       
     178      -11.6012         2.000       
     177      -11.6201         2.000       
     176      -11.8609         2.000       
     175      -11.9240         2.000       
     174      -11.9720         2.000       
     173      -12.0386         2.000       
     172      -12.1474         2.000       
     171      -12.1913         2.000       
     170      -12.2161         2.000       
     169      -12.3124         2.000       
     168      -12.3309         2.000       
     167      -12.4515         2.000       
     166      -12.5070         2.000       
     165      -12.5407         2.000       
     164      -12.5784         2.000       
     163      -12.5913         2.000       
     162      -12.6069         2.000       
     161      -12.7526         2.000       
     160      -12.8628         2.000       
     159      -12.9043         2.000       
     158      -12.9643         2.000       
     157      -13.0124         2.000       
     156      -13.0825         2.000       
     155      -13.1738         2.000       
     154      -13.2540         2.000       
     153      -13.2892         2.000       
     152      -13.3062         2.000       
     151      -13.4047         2.000       
     150      -13.5346         2.000       
     149      -13.6047         2.000       
     148      -13.7485         2.000       
     147      -13.7755         2.000       
     146      -13.9430         2.000       
     145      -14.0470         2.000       
     144      -14.1042         2.000       
     143      -14.4987         2.000       
     142      -14.6741         2.000       
     141      -14.8611         2.000       
     140      -15.1187         2.000       
     139      -15.2633         2.000       
     138      -15.4056         2.000       
     137      -15.5301         2.000       
     136      -15.7362         2.000       
     135      -15.8553         2.000       
     134      -15.9751         2.000       
     133      -16.0442         2.000       
     132      -16.0701         2.000       
     131      -16.2533         2.000       
     130      -16.6630         2.000       
     129      -16.8361         2.000       
     128      -16.9118         2.000       
     127      -17.0287         2.000       
     126      -17.1269         2.000       
     125      -17.2742         2.000       
     124      -17.3871         2.000       
     123      -17.4281         2.000       
     122      -17.6754         2.000       
     121      -17.7854         2.000       
     120      -18.3706         2.000       
     119      -18.3994         2.000       
     118      -18.4680         2.000       
     117      -19.3099         2.000       
     116      -19.4656         2.000       
     115      -19.7957         2.000       
     114      -20.7298         2.000       
     113      -20.7604         2.000       
     112      -20.8845         2.000       
     111      -21.0160         2.000       
     110      -21.1131         2.000       
     109      -21.1689         2.000       
     108      -21.2415         2.000       
     107      -21.3248         2.000       
     106      -21.4224         2.000       
     105      -21.4549         2.000       
     104      -21.8714         2.000       
     103      -22.2260         2.000       
     102      -22.8454         2.000       
     101      -23.4349         2.000       
     100      -23.7822         2.000       
      99      -23.9186         2.000       
      98      -23.9421         2.000       
      97      -24.1572         2.000       
      96      -24.2249         2.000       
      95      -24.3671         2.000       
      94      -25.7962         2.000       
      93      -27.4483         2.000       
      92      -30.1700         2.000       
      91      -30.4781         2.000       
      90      -34.6346         2.000       
      89      -34.7600         2.000       
      88      -35.0448         2.000       
      87      -35.3073         2.000       
      86      -57.8615         2.000       
      85      -58.6178         2.000       
      84      -58.7224         2.000       
      83      -93.8346         2.000       
      82     -129.3844         2.000       
      81     -129.4524         2.000       
      80     -129.4738         2.000       
      79     -129.8643         2.000       
      78     -129.9176         2.000       
      77     -129.9325         2.000       
      76     -165.2401         2.000       
      75     -165.2506         2.000       
      74     -165.2731         2.000       
      73     -181.2500         2.000       
      72     -181.7137         2.000       
      71     -197.1931         2.000       
      70     -197.2082         2.000       
      69     -197.4741         2.000       
      68     -222.7987         2.000       
      67     -260.8364         2.000       
      66     -277.7953         2.000       
      65     -277.9713         2.000       
      64     -278.0043         2.000       
      63     -278.0656         2.000       
      62     -278.2191         2.000       
      61     -278.2251         2.000       
      60     -278.2876         2.000       
      59     -278.3305         2.000       
      58     -278.3556         2.000       
      57     -278.3632         2.000       
      56     -278.3757         2.000       
      55     -278.3788         2.000       
      54     -278.3942         2.000       
      53     -278.4338         2.000       
      52     -278.4573         2.000       
      51     -278.4983         2.000       
      50     -278.5541         2.000       
      49     -278.5674         2.000       
      48     -278.6225         2.000       
      47     -278.6345         2.000       
      46     -278.6728         2.000       
      45     -278.7291         2.000       
      44     -278.8098         2.000       
      43     -278.8836         2.000       
      42     -278.8879         2.000       
      41     -278.9641         2.000       
      40     -278.9778         2.000       
      39     -279.1974         2.000       
      38     -279.2341         2.000       
      37     -279.2899         2.000       
      36     -279.3170         2.000       
      35     -279.4202         2.000       
      34     -279.7797         2.000       
      33     -279.9617         2.000       
      32     -280.0526         2.000       
      31     -280.2498         2.000       
      30     -280.9566         2.000       
      29     -281.1462         2.000       
      28     -281.1934         2.000       
      27     -281.2382         2.000       
      26     -338.1644         2.000       
      25     -338.2058         2.000       
      24     -338.2567         2.000       
      23     -338.4253         2.000       
      22     -338.4299         2.000       
      21     -391.5090         2.000       
      20     -522.2182         2.000       
      19     -522.2260         2.000       
      18     -523.9577         2.000       
      17     -531.9660         2.000       
      16     -532.2806         2.000       
      15     -532.3603         2.000       
      14     -654.0406         2.000       
      13     -675.1512         2.000       
      12     -675.3321         2.000       
      11     -675.4522         2.000       
      10     -675.4634         2.000       
       9    -2107.2961         2.000       
       8    -2107.7909         2.000       
       7    -2434.5959         2.000       
       6    -2777.0634         2.000       
       5    -3190.1644         2.000       
       4    -3190.3001         2.000       
       3    -3190.3279         2.000       
       2    -3561.2189         2.000       
       1   -24224.3060         2.000       

AMS application finished. Exiting.
NORMAL TERMINATION
     Total cpu time:    5899.73
  Total system time:      53.30
 Total elapsed time:    5974.70
NORMAL TERMINATION
