

 Parallel Execution: Process Information
 ==============================================================================
 Rank   Node Name                              NodeID   MyNodeRank  NodeMaster
    0   eu-g5-002-2                               0          0          0
    1   eu-g5-002-2                               1          0          1
    2   eu-g5-002-2                               0          1         -1
    3   eu-g5-002-2                               1          1         -1
    4   eu-g5-002-2                               0          2         -1
    5   eu-g5-002-2                               1          2         -1
    6   eu-g5-002-2                               0          3         -1
    7   eu-g5-002-2                               1          3         -1
    8   eu-g5-002-2                               0          4         -1
    9   eu-g5-002-2                               1          4         -1
   10   eu-g5-002-2                               0          5         -1
   11   eu-g5-002-2                               1          5         -1
   12   eu-g5-002-2                               0          6         -1
   13   eu-g5-002-2                               1          6         -1
   14   eu-g5-002-2                               0          7         -1
   15   eu-g5-002-2                               1          7         -1
 ==============================================================================


May use up to 30549MB of RAM as shared memory on node 0
May use up to 30759MB of RAM as shared memory on node 1

 *******************************************************************************
 *                                                                             *
 *  --------------------------------                                           *
 *   Amsterdam Modeling Suite (AMS)              2023.101                      *
 *  --------------------------------                                           *
 *                                               r111868 2023-03-31            *
 *                                                                             *
 *                                                                             *
 *                              =================                              *
 *                              |               |                              *
 *                              |     A M S     |                              *
 *                              |               |                              *
 *                              =================                              *
 *                                                                             *
 *                                                                             *
 *   Online information and documentation:  https://www.scm.com/support/       *
 *   E-mail:  support@scm.com   info@scm.com                                   *
 *                                                                             *
 *   Scientific publications using AMS results must be properly referenced     *
 *   See the User Manuals (or the web site) for recommended citations          *
 *   The terms and conditions of the End User License Agreement apply to       *
 *   the use of AMS, https://www.scm.com/license-terms/                        *
 *                                                                             *
 ***********************  x86_64_linux_intel / openmpi  ************************
 
 Licensed to: D-CHAB / ETH site license / Zurich / Switzerland 2023-06-23 15:55:12
 SCM User ID: u7035
  
 AMS 2023.101  RunTime: May25-2024 09:19:11  ShM Nodes: 2  Procs: 16

 AMS jobname: gs_fdppe
 AMS jobid  : 459601774

 Start   directory: /cluster/scratch/sroediger/michael/eda/
 Results directory: /cluster/scratch/sroediger/michael/eda/gs_fdppe.results/
 Scratch directory: /scratch/amstmp_gs_fdppe_kid0.459601774/


 Communication costs MPI_COMM_WORLD:      7.830 usec per message,   0.0152 usec per 8-byte item
 Communication costs for intra-node:      3.341 usec per message,   0.0146 usec per 8-byte item

 RNG seed: 1199683145 1924497571 1419484883 -428643117 2038991142 -1727273673 1244011769 -825646194



                     *************************************************************************
                     *  ADF 2023.101  RunTime: May25-2024 09:19:12  ShM Nodes: 2  Procs: 16  *
                     *************************************************************************
  

       ****************************
       * SINGLE POINT CALCULATION *
       ****************************
 
--------
Geometry
--------
Formula: C40H12ClF24NO3P2PdS
Atoms
  Index Symbol   x (angstrom)   y (angstrom)   z (angstrom)
      1     Pd    -0.07543600     0.07958300    -0.36840500       region=pdsubstrate adf.f=pdsubstrate
      2     Cl     0.28197900     0.93564900    -4.02426600       region=pdsubstrate adf.f=pdsubstrate
      3      S     2.21792600    -0.74265600    -2.43950200       region=pdsubstrate adf.f=pdsubstrate
      4      P    -1.34452100     0.98341800     1.23222100       region=ligand adf.f=ligand
      5      P     1.73771000     0.93643100     0.83473200       region=ligand adf.f=ligand
      6      F    -2.41007800    -4.57049500    -1.53477800       region=pdsubstrate adf.f=pdsubstrate
      7      F    -0.68060200    -6.45247700    -0.79396400       region=pdsubstrate adf.f=pdsubstrate
      8      F     1.92638100    -5.82370300    -0.35154700       region=pdsubstrate adf.f=pdsubstrate
      9      F     2.76676100    -3.30883000    -0.60688500       region=pdsubstrate adf.f=pdsubstrate
     10      O     2.71943100     0.53268200    -1.91458000       region=pdsubstrate adf.f=pdsubstrate
     11      O     3.15248900    -1.80538800    -2.79492600       region=pdsubstrate adf.f=pdsubstrate
     12      O    -4.47925200    -1.47281700    -4.41078300       region=pdsubstrate adf.f=pdsubstrate
     13      N     1.06475400    -1.24842000    -1.42757200       region=pdsubstrate adf.f=pdsubstrate
     14      C    -1.61890700    -0.54346700    -1.51750300       region=pdsubstrate adf.f=pdsubstrate
     15      C    -2.50682100     0.40589900    -2.03775100       region=pdsubstrate adf.f=pdsubstrate
     16      H    -2.43700300     1.44785100    -1.71815800       region=pdsubstrate adf.f=pdsubstrate
     17      C    -3.45658400     0.08479500    -2.99753400       region=pdsubstrate adf.f=pdsubstrate
     18      H    -4.14187200     0.83340900    -3.40045800       region=pdsubstrate adf.f=pdsubstrate
     19      C    -3.53214600    -1.22507700    -3.48146300       region=pdsubstrate adf.f=pdsubstrate
     20      C    -4.59341700    -2.76968800    -4.92420900       region=pdsubstrate adf.f=pdsubstrate
     21      H    -5.42811000    -2.75442300    -5.63658500       region=pdsubstrate adf.f=pdsubstrate
     22      H    -4.81183100    -3.50817800    -4.13247700       region=pdsubstrate adf.f=pdsubstrate
     23      H    -3.67813300    -3.08468300    -5.45654300       region=pdsubstrate adf.f=pdsubstrate
     24      C    -2.63540900    -2.17962400    -3.00373600       region=pdsubstrate adf.f=pdsubstrate
     25      H    -2.65993800    -3.19448600    -3.39537800       region=pdsubstrate adf.f=pdsubstrate
     26      C    -1.67723000    -1.85261600    -2.02531500       region=pdsubstrate adf.f=pdsubstrate
     27      C    -0.72180400    -2.89885100    -1.59797400       region=pdsubstrate adf.f=pdsubstrate
     28      C    -1.13450800    -4.21681200    -1.38705800       region=pdsubstrate adf.f=pdsubstrate
     29      C    -0.25202400    -5.21501700    -0.98620500       region=pdsubstrate adf.f=pdsubstrate
     30      C     1.08229600    -4.89497800    -0.76700800       region=pdsubstrate adf.f=pdsubstrate
     31      C     1.51173700    -3.58256300    -0.93233900       region=pdsubstrate adf.f=pdsubstrate
     32      C     0.64009000    -2.57682300    -1.37083200       region=pdsubstrate adf.f=pdsubstrate
     33      C     1.42471800    -0.39763400    -4.03096400       region=pdsubstrate adf.f=pdsubstrate
     34      H     2.25282100    -0.17750000    -4.71805400       region=pdsubstrate adf.f=pdsubstrate
     35      H     0.91826900    -1.32542700    -4.32885800       region=pdsubstrate adf.f=pdsubstrate
     36      C     1.06761900     1.29502800     2.53161200       region=ligand adf.f=ligand
     37      H     0.94679200     0.32748000     3.04136300       region=ligand adf.f=ligand
     38      H     1.77041400     1.90273800     3.11875800       region=ligand adf.f=ligand
     39      C    -0.27340200     2.00218300     2.36240000       region=ligand adf.f=ligand
     40      H    -0.13790700     2.98391400     1.88851900       region=ligand adf.f=ligand
     41      H    -0.78287400     2.16306700     3.32238700       region=ligand adf.f=ligand
     42      C     3.17019000    -0.15472200     1.07925900       region=ligand adf.f=ligand
     43      C     2.91052800    -1.38743700     1.68371700       region=ligand adf.f=ligand
     44      C     3.87871300    -2.37100000     1.82477300       region=ligand adf.f=ligand
     45      C     5.15361000    -2.13841700     1.31731300       region=ligand adf.f=ligand
     46      C     5.44277800    -0.92654800     0.69469100       region=ligand adf.f=ligand
     47      C     4.45727500     0.04966300     0.57273800       region=ligand adf.f=ligand
     48      C     2.33655100     2.58342100     0.34478800       region=ligand adf.f=ligand
     49      C     1.78415000     3.24431500    -0.75507200       region=ligand adf.f=ligand
     50      C     2.21426600     4.51773000    -1.12407100       region=ligand adf.f=ligand
     51      C     3.20807500     5.15105000    -0.38298100       region=ligand adf.f=ligand
     52      C     3.76714700     4.51843700     0.72804800       region=ligand adf.f=ligand
     53      C     3.31892000     3.25240000     1.07956500       region=ligand adf.f=ligand
     54      C    -2.78305000     2.00869300     0.77173900       region=ligand adf.f=ligand
     55      C    -2.58940100     3.31146000     0.30226700       region=ligand adf.f=ligand
     56      C    -3.62266200     4.06581900    -0.24285400       region=ligand adf.f=ligand
     57      C    -4.89288200     3.50343200    -0.35510300       region=ligand adf.f=ligand
     58      C    -5.11463800     2.19926700     0.08053300       region=ligand adf.f=ligand
     59      C    -4.06305600     1.46520000     0.62145700       region=ligand adf.f=ligand
     60      C    -2.01173700    -0.24668100     2.41347800       region=ligand adf.f=ligand
     61      C    -2.76704200     0.18003800     3.51260800       region=ligand adf.f=ligand
     62      C    -3.28604200    -0.70508800     4.44752000       region=ligand adf.f=ligand
     63      C    -3.04755900    -2.07130200     4.29466100       region=ligand adf.f=ligand
     64      C    -2.29838700    -2.52967100     3.21558100       region=ligand adf.f=ligand
     65      C    -1.78893600    -1.62187800     2.28619300       region=ligand adf.f=ligand
     66      F     0.81428300     2.70743400    -1.46477600       region=ligand adf.f=ligand
     67      F     3.86188900     2.66963300     2.14051000       region=ligand adf.f=ligand
     68      F     4.70404500     5.12554900     1.43135200       region=ligand adf.f=ligand
     69      F     1.67543500     5.13018800    -2.15970000       region=ligand adf.f=ligand
     70      F     3.61561700     6.35424800    -0.72309200       region=ligand adf.f=ligand
     71      F    -3.02451300     1.47231700     3.67844700       region=ligand adf.f=ligand
     72      F    -3.99832600    -0.26860900     5.46765200       region=ligand adf.f=ligand
     73      F    -3.52864100    -2.92167600     5.17265200       region=ligand adf.f=ligand
     74      F    -2.06880900    -3.81835900     3.07447200       region=ligand adf.f=ligand
     75      F    -1.08637000    -2.12903200     1.29679300       region=ligand adf.f=ligand
     76      F     1.68124900    -1.66539200     2.11585600       region=ligand adf.f=ligand
     77      F     4.79728800     1.17303300    -0.02710500       region=ligand adf.f=ligand
     78      F     6.65340200    -0.70732800     0.22070200       region=ligand adf.f=ligand
     79      F     6.08476000    -3.06056500     1.42607400       region=ligand adf.f=ligand
     80      F     3.58414000    -3.52551200     2.38809600       region=ligand adf.f=ligand
     81      F    -1.38325600     3.86953400     0.33179900       region=ligand adf.f=ligand
     82      F    -3.40363900     5.29531400    -0.66290500       region=ligand adf.f=ligand
     83      F    -5.87843800     4.20269500    -0.87148200       region=ligand adf.f=ligand
     84      F    -6.30963200     1.65971300    -0.04033900       region=ligand adf.f=ligand
     85      F    -4.31735200     0.21561300     0.96859900       region=ligand adf.f=ligand
 
Total System Charge             0.00000
Bonding info available!
 
 
----------------
ADF Engine Input
----------------
 
 Basis
 Type TZP
 Core None
 End
 Fragments
 ligand ./gs_fdppe.ligand.results/adf.rkf
 pdsubstrate ./gs_fdppe.pdsubstrate.results/adf.rkf
 End
 XC
 Hybrid PBE0
 DISPERSION Grimme3 BJDAMP
 End
 NumericalQuality VeryGood
 

 Title: *** (NO TITLE) ***

 *** adf ***



 ===========================
 A T T A C H E D   F I L E S
 ===========================
  



 ===============================
 M O D E L   P A R A M E T E R S
 ===============================
  
 DENSITY FUNCTIONAL POTENTIAL (scf)
    Hybrid:                            PBE0                                    == Not Default ==

 SPIN  (restricted / unrestr.)
    Molecule:                          Restricted                               
    Fragments:                         Restricted                               

 OTHER ASPECTS
    Relativistic Corrections:          scalar (ZORA,MAPA)                       

    Nuclear Charge Density Model:      Point Charge Nuclei                      
    Core Treatment:                    Frozen Orbital(s)                        

    Hyperfine or Zeeman Interaction:   ---                                      

 Settings for Grimme D3 dispersion correction

      damping                        BJ
      s6                          1.000
      s8                          1.218
      a1                          0.414
      a2                          4.859

 Other (technical) parameters

      alpha                      14.000
      version                         4
 


 Fragment File(s)
 ----------------
 pdsubstrate:
         file : ./gs_fdppe.pdsubstrate.results/adf.rkf
         jobid: 1223304477
         title: *** adf ***
 ligand:
         file : ./gs_fdppe.ligand.results/adf.rkf
         jobid: 1942476448
         title: *** adf ***



 ===============
 G E O M E T R Y  ***  3D  Molecule  ***
 ===============
  

 ATOMS
 =====                            X Y Z                    CHARGE
                                (Angstrom)             Nucl     +Core       At.Mass
                       --------------------------    ----------------       -------
    1  Pd             -0.0754    0.0796   -0.3684     46.00     46.00      105.9035
    2  Cl              0.2820    0.9356   -4.0243     17.00     17.00       34.9689
    3  S               2.2179   -0.7427   -2.4395     16.00     16.00       31.9721
    4  P              -1.3445    0.9834    1.2322     15.00     15.00       30.9738
    5  P               1.7377    0.9364    0.8347     15.00     15.00       30.9738
    6  F              -2.4101   -4.5705   -1.5348      9.00      9.00       18.9984
    7  F              -0.6806   -6.4525   -0.7940      9.00      9.00       18.9984
    8  F               1.9264   -5.8237   -0.3515      9.00      9.00       18.9984
    9  F               2.7668   -3.3088   -0.6069      9.00      9.00       18.9984
   10  O               2.7194    0.5327   -1.9146      8.00      8.00       15.9949
   11  O               3.1525   -1.8054   -2.7949      8.00      8.00       15.9949
   12  O              -4.4793   -1.4728   -4.4108      8.00      8.00       15.9949
   13  N               1.0648   -1.2484   -1.4276      7.00      7.00       14.0031
   14  C              -1.6189   -0.5435   -1.5175      6.00      6.00       12.0000
   15  C              -2.5068    0.4059   -2.0378      6.00      6.00       12.0000
   16  H              -2.4370    1.4479   -1.7182      1.00      1.00        1.0078
   17  C              -3.4566    0.0848   -2.9975      6.00      6.00       12.0000
   18  H              -4.1419    0.8334   -3.4005      1.00      1.00        1.0078
   19  C              -3.5321   -1.2251   -3.4815      6.00      6.00       12.0000
   20  C              -4.5934   -2.7697   -4.9242      6.00      6.00       12.0000
   21  H              -5.4281   -2.7544   -5.6366      1.00      1.00        1.0078
   22  H              -4.8118   -3.5082   -4.1325      1.00      1.00        1.0078
   23  H              -3.6781   -3.0847   -5.4565      1.00      1.00        1.0078
   24  C              -2.6354   -2.1796   -3.0037      6.00      6.00       12.0000
   25  H              -2.6599   -3.1945   -3.3954      1.00      1.00        1.0078
   26  C              -1.6772   -1.8526   -2.0253      6.00      6.00       12.0000
   27  C              -0.7218   -2.8989   -1.5980      6.00      6.00       12.0000
   28  C              -1.1345   -4.2168   -1.3871      6.00      6.00       12.0000
   29  C              -0.2520   -5.2150   -0.9862      6.00      6.00       12.0000
   30  C               1.0823   -4.8950   -0.7670      6.00      6.00       12.0000
   31  C               1.5117   -3.5826   -0.9323      6.00      6.00       12.0000
   32  C               0.6401   -2.5768   -1.3708      6.00      6.00       12.0000
   33  C               1.4247   -0.3976   -4.0310      6.00      6.00       12.0000
   34  H               2.2528   -0.1775   -4.7181      1.00      1.00        1.0078
   35  H               0.9183   -1.3254   -4.3289      1.00      1.00        1.0078
   36  C               1.0676    1.2950    2.5316      6.00      6.00       12.0000
   37  H               0.9468    0.3275    3.0414      1.00      1.00        1.0078
   38  H               1.7704    1.9027    3.1188      1.00      1.00        1.0078
   39  C              -0.2734    2.0022    2.3624      6.00      6.00       12.0000
   40  H              -0.1379    2.9839    1.8885      1.00      1.00        1.0078
   41  H              -0.7829    2.1631    3.3224      1.00      1.00        1.0078
   42  C               3.1702   -0.1547    1.0793      6.00      6.00       12.0000
   43  C               2.9105   -1.3874    1.6837      6.00      6.00       12.0000
   44  C               3.8787   -2.3710    1.8248      6.00      6.00       12.0000
   45  C               5.1536   -2.1384    1.3173      6.00      6.00       12.0000
   46  C               5.4428   -0.9265    0.6947      6.00      6.00       12.0000
   47  C               4.4573    0.0497    0.5727      6.00      6.00       12.0000
   48  C               2.3366    2.5834    0.3448      6.00      6.00       12.0000
   49  C               1.7841    3.2443   -0.7551      6.00      6.00       12.0000
   50  C               2.2143    4.5177   -1.1241      6.00      6.00       12.0000
   51  C               3.2081    5.1510   -0.3830      6.00      6.00       12.0000
   52  C               3.7671    4.5184    0.7280      6.00      6.00       12.0000
   53  C               3.3189    3.2524    1.0796      6.00      6.00       12.0000
   54  C              -2.7830    2.0087    0.7717      6.00      6.00       12.0000
   55  C              -2.5894    3.3115    0.3023      6.00      6.00       12.0000
   56  C              -3.6227    4.0658   -0.2429      6.00      6.00       12.0000
   57  C              -4.8929    3.5034   -0.3551      6.00      6.00       12.0000
   58  C              -5.1146    2.1993    0.0805      6.00      6.00       12.0000
   59  C              -4.0631    1.4652    0.6215      6.00      6.00       12.0000
   60  C              -2.0117   -0.2467    2.4135      6.00      6.00       12.0000
   61  C              -2.7670    0.1800    3.5126      6.00      6.00       12.0000
   62  C              -3.2860   -0.7051    4.4475      6.00      6.00       12.0000
   63  C              -3.0476   -2.0713    4.2947      6.00      6.00       12.0000
   64  C              -2.2984   -2.5297    3.2156      6.00      6.00       12.0000
   65  C              -1.7889   -1.6219    2.2862      6.00      6.00       12.0000
   66  F               0.8143    2.7074   -1.4648      9.00      9.00       18.9984
   67  F               3.8619    2.6696    2.1405      9.00      9.00       18.9984
   68  F               4.7040    5.1255    1.4314      9.00      9.00       18.9984
   69  F               1.6754    5.1302   -2.1597      9.00      9.00       18.9984
   70  F               3.6156    6.3542   -0.7231      9.00      9.00       18.9984
   71  F              -3.0245    1.4723    3.6784      9.00      9.00       18.9984
   72  F              -3.9983   -0.2686    5.4677      9.00      9.00       18.9984
   73  F              -3.5286   -2.9217    5.1727      9.00      9.00       18.9984
   74  F              -2.0688   -3.8184    3.0745      9.00      9.00       18.9984
   75  F              -1.0864   -2.1290    1.2968      9.00      9.00       18.9984
   76  F               1.6812   -1.6654    2.1159      9.00      9.00       18.9984
   77  F               4.7973    1.1730   -0.0271      9.00      9.00       18.9984
   78  F               6.6534   -0.7073    0.2207      9.00      9.00       18.9984
   79  F               6.0848   -3.0606    1.4261      9.00      9.00       18.9984
   80  F               3.5841   -3.5255    2.3881      9.00      9.00       18.9984
   81  F              -1.3833    3.8695    0.3318      9.00      9.00       18.9984
   82  F              -3.4036    5.2953   -0.6629      9.00      9.00       18.9984
   83  F              -5.8784    4.2027   -0.8715      9.00      9.00       18.9984
   84  F              -6.3096    1.6597   -0.0403      9.00      9.00       18.9984
   85  F              -4.3174    0.2156    0.9686      9.00      9.00       18.9984


 FRAGMENTS
 =========                                     Atoms in this Fragment     Cart. coord.s (Angstrom)
                                               -------------------------------------------------------
    1  pdsubstrate                                       1  Pd          -0.0754    0.0796   -0.3684
                                                         2  Cl           0.2820    0.9356   -4.0243
                                                         3  S            2.2179   -0.7427   -2.4395
                                                        34  H            2.2528   -0.1775   -4.7181
                                                        35  H            0.9183   -1.3254   -4.3289
                                                        16  H           -2.4370    1.4479   -1.7182
                                                        18  H           -4.1419    0.8334   -3.4005
                                                        21  H           -5.4281   -2.7544   -5.6366
                                                        22  H           -4.8118   -3.5082   -4.1325
                                                        23  H           -3.6781   -3.0847   -5.4565
                                                        25  H           -2.6599   -3.1945   -3.3954
                                                         6  F           -2.4101   -4.5705   -1.5348
                                                         7  F           -0.6806   -6.4525   -0.7940
                                                         8  F            1.9264   -5.8237   -0.3515
                                                         9  F            2.7668   -3.3088   -0.6069
                                                        10  O            2.7194    0.5327   -1.9146
                                                        11  O            3.1525   -1.8054   -2.7949
                                                        12  O           -4.4793   -1.4728   -4.4108
                                                        13  N            1.0648   -1.2484   -1.4276
                                                        14  C           -1.6189   -0.5435   -1.5175
                                                        15  C           -2.5068    0.4059   -2.0378
                                                        17  C           -3.4566    0.0848   -2.9975
                                                        19  C           -3.5321   -1.2251   -3.4815
                                                        20  C           -4.5934   -2.7697   -4.9242
                                                        24  C           -2.6354   -2.1796   -3.0037
                                                        26  C           -1.6772   -1.8526   -2.0253
                                                        27  C           -0.7218   -2.8989   -1.5980
                                                        28  C           -1.1345   -4.2168   -1.3871
                                                        29  C           -0.2520   -5.2150   -0.9862
                                                        30  C            1.0823   -4.8950   -0.7670
                                                        31  C            1.5117   -3.5826   -0.9323
                                                        32  C            0.6401   -2.5768   -1.3708
                                                        33  C            1.4247   -0.3976   -4.0310
    2  ligand                                           53  C            3.3189    3.2524    1.0796
                                                        54  C           -2.7830    2.0087    0.7717
                                                        55  C           -2.5894    3.3115    0.3023
                                                        56  C           -3.6227    4.0658   -0.2429
                                                        57  C           -4.8929    3.5034   -0.3551
                                                        58  C           -5.1146    2.1993    0.0805
                                                        59  C           -4.0631    1.4652    0.6215
                                                        60  C           -2.0117   -0.2467    2.4135
                                                        61  C           -2.7670    0.1800    3.5126
                                                        62  C           -3.2860   -0.7051    4.4475
                                                        63  C           -3.0476   -2.0713    4.2947
                                                        64  C           -2.2984   -2.5297    3.2156
                                                        65  C           -1.7889   -1.6219    2.2862
                                                        36  C            1.0676    1.2950    2.5316
                                                        39  C           -0.2734    2.0022    2.3624
                                                        42  C            3.1702   -0.1547    1.0793
                                                        43  C            2.9105   -1.3874    1.6837
                                                        44  C            3.8787   -2.3710    1.8248
                                                        45  C            5.1536   -2.1384    1.3173
                                                        46  C            5.4428   -0.9265    0.6947
                                                        47  C            4.4573    0.0497    0.5727
                                                        48  C            2.3366    2.5834    0.3448
                                                        49  C            1.7841    3.2443   -0.7551
                                                        50  C            2.2143    4.5177   -1.1241
                                                        51  C            3.2081    5.1510   -0.3830
                                                        52  C            3.7671    4.5184    0.7280
                                                         4  P           -1.3445    0.9834    1.2322
                                                         5  P            1.7377    0.9364    0.8347
                                                        66  F            0.8143    2.7074   -1.4648
                                                        67  F            3.8619    2.6696    2.1405
                                                        68  F            4.7040    5.1255    1.4314
                                                        69  F            1.6754    5.1302   -2.1597
                                                        70  F            3.6156    6.3542   -0.7231
                                                        71  F           -3.0245    1.4723    3.6784
                                                        72  F           -3.9983   -0.2686    5.4677
                                                        73  F           -3.5286   -2.9217    5.1727
                                                        74  F           -2.0688   -3.8184    3.0745
                                                        75  F           -1.0864   -2.1290    1.2968
                                                        76  F            1.6812   -1.6654    2.1159
                                                        77  F            4.7973    1.1730   -0.0271
                                                        78  F            6.6534   -0.7073    0.2207
                                                        79  F            6.0848   -3.0606    1.4261
                                                        80  F            3.5841   -3.5255    2.3881
                                                        81  F           -1.3833    3.8695    0.3318
                                                        82  F           -3.4036    5.2953   -0.6629
                                                        83  F           -5.8784    4.2027   -0.8715
                                                        84  F           -6.3096    1.6597   -0.0403
                                                        85  F           -4.3174    0.2156    0.9686
                                                        37  H            0.9468    0.3275    3.0414
                                                        38  H            1.7704    1.9027    3.1188
                                                        40  H           -0.1379    2.9839    1.8885
                                                        41  H           -0.7829    2.1631    3.3224



 =====================================
 S Y M M E T R Y ,   E L E C T R O N S
 =====================================
  
 Symmetry: NOSYM

 Irreducible Representations, including subspecies
 -------------------------------------------------
 A


 Configuration of Valence Electrons
 ==================================
 ( determined in the SCF procedure )

 Total:   608

 Net Charge: 0 (Nuclei minus Electrons)

 Aufbau principle for MO occupations will be applied through SCF cycle no.     150
 Thereafter, the program will assign electrons to MOs that are spatially
 similar to the occupied MOs in a "reference" cycle ("KeepOrbitals").
 The reference cycle is always the PREVIOUS cycle: it will evolve with
 the SCF procedure.
1
 ***************************************************************************************************



                                      ****************************************
                                      *  B U I L D : (Fragments, Functions)  *
                                      ****************************************
  

 The individual fragments are copies of the corresponding 'Master' fragments defined on the fragment files.
 However, they may have been rotated (and translated) with respect to the Master. The local coordinate axes
 of each fragment (which define for instance the spatial orientation in the current molecule of a fragment
 P:x orbital) are not necessarily those of the molecule.
 The local frame (if different from the molecular one) is printed to enable an interpretation of the expan-
 sion of an MO in Fragment Orbitals.



                                         *********************************
                                         *  Fragment Type : pdsubstrate  *
                                         *********************************
  

 Fragment no.    1   (in the list of all fragments)
 -----------------
 The local coordinate frame is identical to the molecular frame.

 Check Atomic Coordinates:

                  Master (on file)          After Computed Tranformation               As specified on Input
           ----------------------------     ----------------------------     ---------------------------------
     1)    -0.07544   0.07958  -0.36840     -0.07544   0.07958  -0.36840       1  -0.07544   0.07958  -0.36840
     2)     0.28198   0.93565  -4.02427      0.28198   0.93565  -4.02427       2   0.28198   0.93565  -4.02427
     3)     2.21793  -0.74266  -2.43950      2.21793  -0.74266  -2.43950       3   2.21793  -0.74266  -2.43950
     4)     2.25282  -0.17750  -4.71805      2.25282  -0.17750  -4.71805      34   2.25282  -0.17750  -4.71805
     5)     0.91827  -1.32543  -4.32886      0.91827  -1.32543  -4.32886      35   0.91827  -1.32543  -4.32886
     6)    -2.43700   1.44785  -1.71816     -2.43700   1.44785  -1.71816      16  -2.43700   1.44785  -1.71816
     7)    -4.14187   0.83341  -3.40046     -4.14187   0.83341  -3.40046      18  -4.14187   0.83341  -3.40046
     8)    -5.42811  -2.75442  -5.63659     -5.42811  -2.75442  -5.63659      21  -5.42811  -2.75442  -5.63659
     9)    -4.81183  -3.50818  -4.13248     -4.81183  -3.50818  -4.13248      22  -4.81183  -3.50818  -4.13248
    10)    -3.67813  -3.08468  -5.45654     -3.67813  -3.08468  -5.45654      23  -3.67813  -3.08468  -5.45654
    11)    -2.65994  -3.19449  -3.39538     -2.65994  -3.19449  -3.39538      25  -2.65994  -3.19449  -3.39538
    12)    -2.41008  -4.57050  -1.53478     -2.41008  -4.57050  -1.53478       6  -2.41008  -4.57050  -1.53478
    13)    -0.68060  -6.45248  -0.79396     -0.68060  -6.45248  -0.79396       7  -0.68060  -6.45248  -0.79396
    14)     1.92638  -5.82370  -0.35155      1.92638  -5.82370  -0.35155       8   1.92638  -5.82370  -0.35155
    15)     2.76676  -3.30883  -0.60689      2.76676  -3.30883  -0.60689       9   2.76676  -3.30883  -0.60689
    16)     2.71943   0.53268  -1.91458      2.71943   0.53268  -1.91458      10   2.71943   0.53268  -1.91458
    17)     3.15249  -1.80539  -2.79493      3.15249  -1.80539  -2.79493      11   3.15249  -1.80539  -2.79493
    18)    -4.47925  -1.47282  -4.41078     -4.47925  -1.47282  -4.41078      12  -4.47925  -1.47282  -4.41078
    19)     1.06475  -1.24842  -1.42757      1.06475  -1.24842  -1.42757      13   1.06475  -1.24842  -1.42757
    20)    -1.61891  -0.54347  -1.51750     -1.61891  -0.54347  -1.51750      14  -1.61891  -0.54347  -1.51750
    21)    -2.50682   0.40590  -2.03775     -2.50682   0.40590  -2.03775      15  -2.50682   0.40590  -2.03775
    22)    -3.45658   0.08479  -2.99753     -3.45658   0.08479  -2.99753      17  -3.45658   0.08479  -2.99753
    23)    -3.53215  -1.22508  -3.48146     -3.53215  -1.22508  -3.48146      19  -3.53215  -1.22508  -3.48146
    24)    -4.59342  -2.76969  -4.92421     -4.59342  -2.76969  -4.92421      20  -4.59342  -2.76969  -4.92421
    25)    -2.63541  -2.17962  -3.00374     -2.63541  -2.17962  -3.00374      24  -2.63541  -2.17962  -3.00374
    26)    -1.67723  -1.85262  -2.02531     -1.67723  -1.85262  -2.02531      26  -1.67723  -1.85262  -2.02531
    27)    -0.72180  -2.89885  -1.59797     -0.72180  -2.89885  -1.59797      27  -0.72180  -2.89885  -1.59797
    28)    -1.13451  -4.21681  -1.38706     -1.13451  -4.21681  -1.38706      28  -1.13451  -4.21681  -1.38706
    29)    -0.25202  -5.21502  -0.98620     -0.25202  -5.21502  -0.98620      29  -0.25202  -5.21502  -0.98620
    30)     1.08230  -4.89498  -0.76701      1.08230  -4.89498  -0.76701      30   1.08230  -4.89498  -0.76701
    31)     1.51174  -3.58256  -0.93234      1.51174  -3.58256  -0.93234      31   1.51174  -3.58256  -0.93234
    32)     0.64009  -2.57682  -1.37083      0.64009  -2.57682  -1.37083      32   0.64009  -2.57682  -1.37083
    33)     1.42472  -0.39763  -4.03096      1.42472  -0.39763  -4.03096      33   1.42472  -0.39763  -4.03096



                                            ****************************
                                            *  Fragment Type : ligand  *
                                            ****************************
  

 Fragment no.    2   (in the list of all fragments)
 -----------------
 The local coordinate frame is identical to the molecular frame.

 Check Atomic Coordinates:

                  Master (on file)          After Computed Tranformation               As specified on Input
           ----------------------------     ----------------------------     ---------------------------------
     1)     3.31892   3.25240   1.07957      3.31892   3.25240   1.07957      53   3.31892   3.25240   1.07957
     2)    -2.78305   2.00869   0.77174     -2.78305   2.00869   0.77174      54  -2.78305   2.00869   0.77174
     3)    -2.58940   3.31146   0.30227     -2.58940   3.31146   0.30227      55  -2.58940   3.31146   0.30227
     4)    -3.62266   4.06582  -0.24285     -3.62266   4.06582  -0.24285      56  -3.62266   4.06582  -0.24285
     5)    -4.89288   3.50343  -0.35510     -4.89288   3.50343  -0.35510      57  -4.89288   3.50343  -0.35510
     6)    -5.11464   2.19927   0.08053     -5.11464   2.19927   0.08053      58  -5.11464   2.19927   0.08053
     7)    -4.06306   1.46520   0.62146     -4.06306   1.46520   0.62146      59  -4.06306   1.46520   0.62146
     8)    -2.01174  -0.24668   2.41348     -2.01174  -0.24668   2.41348      60  -2.01174  -0.24668   2.41348
     9)    -2.76704   0.18004   3.51261     -2.76704   0.18004   3.51261      61  -2.76704   0.18004   3.51261
    10)    -3.28604  -0.70509   4.44752     -3.28604  -0.70509   4.44752      62  -3.28604  -0.70509   4.44752
    11)    -3.04756  -2.07130   4.29466     -3.04756  -2.07130   4.29466      63  -3.04756  -2.07130   4.29466
    12)    -2.29839  -2.52967   3.21558     -2.29839  -2.52967   3.21558      64  -2.29839  -2.52967   3.21558
    13)    -1.78894  -1.62188   2.28619     -1.78894  -1.62188   2.28619      65  -1.78894  -1.62188   2.28619
    14)     1.06762   1.29503   2.53161      1.06762   1.29503   2.53161      36   1.06762   1.29503   2.53161
    15)    -0.27340   2.00218   2.36240     -0.27340   2.00218   2.36240      39  -0.27340   2.00218   2.36240
    16)     3.17019  -0.15472   1.07926      3.17019  -0.15472   1.07926      42   3.17019  -0.15472   1.07926
    17)     2.91053  -1.38744   1.68372      2.91053  -1.38744   1.68372      43   2.91053  -1.38744   1.68372
    18)     3.87871  -2.37100   1.82477      3.87871  -2.37100   1.82477      44   3.87871  -2.37100   1.82477
    19)     5.15361  -2.13842   1.31731      5.15361  -2.13842   1.31731      45   5.15361  -2.13842   1.31731
    20)     5.44278  -0.92655   0.69469      5.44278  -0.92655   0.69469      46   5.44278  -0.92655   0.69469
    21)     4.45728   0.04966   0.57274      4.45728   0.04966   0.57274      47   4.45728   0.04966   0.57274
    22)     2.33655   2.58342   0.34479      2.33655   2.58342   0.34479      48   2.33655   2.58342   0.34479
    23)     1.78415   3.24431  -0.75507      1.78415   3.24431  -0.75507      49   1.78415   3.24431  -0.75507
    24)     2.21427   4.51773  -1.12407      2.21427   4.51773  -1.12407      50   2.21427   4.51773  -1.12407
    25)     3.20808   5.15105  -0.38298      3.20808   5.15105  -0.38298      51   3.20808   5.15105  -0.38298
    26)     3.76715   4.51844   0.72805      3.76715   4.51844   0.72805      52   3.76715   4.51844   0.72805
    27)    -1.34452   0.98342   1.23222     -1.34452   0.98342   1.23222       4  -1.34452   0.98342   1.23222
    28)     1.73771   0.93643   0.83473      1.73771   0.93643   0.83473       5   1.73771   0.93643   0.83473
    29)     0.81428   2.70743  -1.46478      0.81428   2.70743  -1.46478      66   0.81428   2.70743  -1.46478
    30)     3.86189   2.66963   2.14051      3.86189   2.66963   2.14051      67   3.86189   2.66963   2.14051
    31)     4.70404   5.12555   1.43135      4.70404   5.12555   1.43135      68   4.70404   5.12555   1.43135
    32)     1.67544   5.13019  -2.15970      1.67544   5.13019  -2.15970      69   1.67544   5.13019  -2.15970
    33)     3.61562   6.35425  -0.72309      3.61562   6.35425  -0.72309      70   3.61562   6.35425  -0.72309
    34)    -3.02451   1.47232   3.67845     -3.02451   1.47232   3.67845      71  -3.02451   1.47232   3.67845
    35)    -3.99833  -0.26861   5.46765     -3.99833  -0.26861   5.46765      72  -3.99833  -0.26861   5.46765
    36)    -3.52864  -2.92168   5.17265     -3.52864  -2.92168   5.17265      73  -3.52864  -2.92168   5.17265
    37)    -2.06881  -3.81836   3.07447     -2.06881  -3.81836   3.07447      74  -2.06881  -3.81836   3.07447
    38)    -1.08637  -2.12903   1.29679     -1.08637  -2.12903   1.29679      75  -1.08637  -2.12903   1.29679
    39)     1.68125  -1.66539   2.11586      1.68125  -1.66539   2.11586      76   1.68125  -1.66539   2.11586
    40)     4.79729   1.17303  -0.02711      4.79729   1.17303  -0.02711      77   4.79729   1.17303  -0.02711
    41)     6.65340  -0.70733   0.22070      6.65340  -0.70733   0.22070      78   6.65340  -0.70733   0.22070
    42)     6.08476  -3.06056   1.42607      6.08476  -3.06056   1.42607      79   6.08476  -3.06056   1.42607
    43)     3.58414  -3.52551   2.38810      3.58414  -3.52551   2.38810      80   3.58414  -3.52551   2.38810
    44)    -1.38326   3.86953   0.33180     -1.38326   3.86953   0.33180      81  -1.38326   3.86953   0.33180
    45)    -3.40364   5.29531  -0.66290     -3.40364   5.29531  -0.66290      82  -3.40364   5.29531  -0.66290
    46)    -5.87844   4.20270  -0.87148     -5.87844   4.20270  -0.87148      83  -5.87844   4.20270  -0.87148
    47)    -6.30963   1.65971  -0.04034     -6.30963   1.65971  -0.04034      84  -6.30963   1.65971  -0.04034
    48)    -4.31735   0.21561   0.96860     -4.31735   0.21561   0.96860      85  -4.31735   0.21561   0.96860
    49)     0.94679   0.32748   3.04136      0.94679   0.32748   3.04136      37   0.94679   0.32748   3.04136
    50)     1.77041   1.90274   3.11876      1.77041   1.90274   3.11876      38   1.77041   1.90274   3.11876
    51)    -0.13791   2.98391   1.88852     -0.13791   2.98391   1.88852      40  -0.13791   2.98391   1.88852
    52)    -0.78287   2.16307   3.32239     -0.78287   2.16307   3.32239      41  -0.78287   2.16307   3.32239

 Total nr. of (C)SFOs (summation over all irreps) :  1538

 Specify PRINT SFO in the input file to get a full list

 Nr. of SFOs for ir.rep.           A :  1538



 ================================
 (Slater-type)  F U N C T I O N S  ***  (Basis and Fit)  ***
 ================================
  

 Atom Type    1  (Pd)
 ==============

 Valence Basis Sets:  26
 -----------------------
   1 S  306.000000
   1 S   76.400000
   1 S   45.900000
   2 S   53.800000
   2 S   19.550000
   3 S   10.150000
   3 S    6.650000
   4 S    6.150000
   4 S    3.900000
   5 S    2.500000
   5 S    1.450000
   5 S    0.850000
   2 P   29.100000
   2 P   18.750000
   3 P   11.250000
   3 P    8.100000
   4 P    5.950000
   4 P    3.950000
   4 P    2.700000
   3 D   17.550000
   3 D   10.450000
   3 D    6.900000
   4 D    4.250000
   4 D    2.200000
   4 D    1.100000
   5 P    1.450000

 Charge Fitting Sets (for the computation of the Coulomb Potential):  58
 -----------------------------------------------------------------------
   1 S  612.000000
   1 S  446.101000
   1 S  325.174000
   1 S  237.027000
   1 S  172.774000
   1 S  125.939000
   1 S   91.800000
   1 S   53.670000
   2 S   58.190000
   2 S   38.430000
   3 S   37.300000
   3 S   26.280000
   4 S   24.500000
   4 S   18.000000
   5 S   16.470000
   5 S   12.460000
   6 S   11.300000
   6 S    8.740000
   7 S    7.890000
   7 S    6.210000
   8 S    5.590000
   8 S    4.470000
   8 S    3.570000
   9 S    3.210000
   9 S    2.600000
   9 S    2.100000
   9 S    1.700000
   2 P   64.650000
   3 P   49.410000
   4 P   37.530000
   5 P   28.620000
   6 P   21.980000
   6 P   14.500000
   7 P   11.220000
   7 P    7.620000
   8 P    5.940000
   8 P    4.130000
   9 P    3.240000
   9 P    2.300000
   3 D   56.350000
   4 D   37.260000
   5 D   25.120000
   6 D   17.230000
   6 D   10.190000
   7 D    7.110000
   7 D    4.360000
   8 D    3.090000
   8 D    1.950000
   4 F   47.900000
   5 F   28.270000
   6 F   17.190000
   6 F    9.040000
   7 F    5.640000
   7 F    3.100000
   5 G   20.900000
   6 G    9.980000
   7 G    4.980000
   7 G    2.200000

 Atom Type    2  (Cl)
 ==============

 Valence Basis Sets:  13
 -----------------------
   1 S   20.300000
   1 S   15.250000
   2 S    6.250000
   2 S    4.450000
   2 P    8.850000
   2 P    5.050000
   3 S    3.450000
   3 S    2.300000
   3 S    1.600000
   3 P    3.350000
   3 P    2.050000
   3 P    1.200000
   3 D    2.000000

 Charge Fitting Sets (for the computation of the Coulomb Potential):  30
 -----------------------------------------------------------------------
   1 S   40.600000
   1 S   24.830000
   2 S   28.080000
   2 S   19.200000
   3 S   19.250000
   3 S   13.970000
   3 S   10.130000
   4 S    9.710000
   4 S    7.320000
   4 S    5.510000
   5 S    5.170000
   5 S    4.000000
   5 S    3.100000
   5 S    2.400000
   2 P   29.150000
   3 P   21.740000
   4 P   16.160000
   4 P    9.600000
   5 P    7.180000
   5 P    4.480000
   5 P    2.800000
   3 D   21.950000
   4 D   15.750000
   4 D    9.040000
   5 D    6.550000
   5 D    3.960000
   5 D    2.400000
   4 F    5.000000
   4 F    3.000000
   5 G    3.500000

 Atom Type    3  (S)
 ==============

 Valence Basis Sets:  13
 -----------------------
   1 S   19.400000
   1 S   14.350000
   2 S    5.900000
   2 S    4.250000
   2 P    8.050000
   2 P    4.550000
   3 S    3.450000
   3 S    2.250000
   3 S    1.500000
   3 P    2.650000
   3 P    1.600000
   3 P    1.000000
   3 D    2.100000

 Charge Fitting Sets (for the computation of the Coulomb Potential):  30
 -----------------------------------------------------------------------
   1 S   38.800000
   1 S   23.350000
   2 S   26.020000
   2 S   17.570000
   3 S   17.420000
   3 S   12.500000
   3 S    8.980000
   4 S    8.520000
   4 S    6.360000
   4 S    4.750000
   5 S    4.420000
   5 S    3.390000
   5 S    2.600000
   5 S    2.000000
   2 P   27.450000
   3 P   20.250000
   4 P   14.920000
   4 P    8.780000
   5 P    6.520000
   5 P    4.040000
   5 P    2.500000
   3 D   20.900000
   4 D   14.560000
   4 D    8.130000
   5 D    5.740000
   5 D    3.390000
   5 D    2.000000
   4 F    5.000000
   4 F    3.000000
   5 G    3.620000

 Atom Type    4  (H)
 ==============

 Valence Basis Sets:   4
 -----------------------
   1 S    0.690000
   1 S    0.920000
   1 S    1.580000
   2 P    1.250000

 Charge Fitting Sets (for the computation of the Coulomb Potential):  11
 -----------------------------------------------------------------------
   1 S    3.160000
   1 S    2.090000
   1 S    1.380000
   2 S    1.500000
   2 P    4.000000
   2 P    2.650000
   2 P    1.750000
   3 D    4.000000
   3 D    2.500000
   4 F    3.000000
   5 G    4.000000

 Atom Type    5  (F)
 ==============

 Valence Basis Sets:   9
 -----------------------
   1 S   10.880000
   1 S    7.700000
   2 S    3.240000
   2 S    1.940000
   2 S    0.740000
   2 P    4.540000
   2 P    2.300000
   2 P    1.240000
   3 D    2.000000

 Charge Fitting Sets (for the computation of the Coulomb Potential):  23
 -----------------------------------------------------------------------
   1 S   21.760000
   2 S   24.390000
   2 S   16.560000
   2 S   11.240000
   2 S    7.630000
   3 S    7.600000
   3 S    5.480000
   3 S    3.950000
   3 S    2.850000
   3 S    2.050000
   3 S    1.480000
   2 P   14.400000
   2 P    7.530000
   3 P    5.900000
   3 P    3.420000
   3 P    1.980000
   3 D    9.700000
   3 D    6.160000
   3 D    3.910000
   3 D    2.480000
   4 F    6.500000
   4 F    3.750000
   5 G    4.500000

 Atom Type    6  (O)
 ==============

 Valence Basis Sets:   9
 -----------------------
   1 S    9.800000
   1 S    6.800000
   2 S    7.580000
   2 S    2.880000
   2 S    1.720000
   2 P    4.080000
   2 P    2.080000
   2 P    1.120000
   3 D    2.000000

 Charge Fitting Sets (for the computation of the Coulomb Potential):  22
 -----------------------------------------------------------------------
   1 S   19.600000
   2 S   22.600000
   2 S   15.680000
   2 S   10.890000
   2 S    7.560000
   3 S    7.690000
   3 S    5.650000
   3 S    4.150000
   3 S    3.050000
   3 S    2.240000
   2 P   12.860000
   2 P    7.680000
   3 P    6.780000
   3 P    4.390000
   3 P    2.840000
   3 D    8.800000
   3 D    5.580000
   3 D    3.530000
   3 D    2.240000
   4 F    6.200000
   4 F    3.700000
   5 G    4.500000

 Atom Type    7  (N)
 ==============

 Valence Basis Sets:   9
 -----------------------
   1 S    8.740000
   1 S    5.900000
   2 S    5.150000
   2 S    2.500000
   2 S    1.500000
   2 P    3.680000
   2 P    1.880000
   2 P    1.000000
   3 D    2.200000

 Charge Fitting Sets (for the computation of the Coulomb Potential):  22
 -----------------------------------------------------------------------
   1 S   17.480000
   2 S   20.150000
   2 S   13.990000
   2 S    9.710000
   2 S    6.740000
   3 S    6.860000
   3 S    5.040000
   3 S    3.700000
   3 S    2.720000
   3 S    2.000000
   2 P   11.320000
   2 P    6.730000
   3 P    5.920000
   3 P    3.820000
   3 P    2.460000
   3 D    8.100000
   3 D    5.080000
   3 D    3.190000
   3 D    2.000000
   4 F    5.800000
   4 F    3.600000
   5 G    4.500000

 Atom Type    8  (C)
 ==============

 Valence Basis Sets:   9
 -----------------------
   1 S    7.680000
   1 S    5.000000
   2 S    1.280000
   2 S    2.100000
   2 S    4.600000
   2 P    0.820000
   2 P    1.480000
   2 P    2.940000
   3 D    2.200000

 Charge Fitting Sets (for the computation of the Coulomb Potential):  22
 -----------------------------------------------------------------------
   1 S   15.360000
   2 S   17.530000
   2 S   12.070000
   2 S    8.310000
   2 S    5.730000
   3 S    5.780000
   3 S    4.220000
   3 S    3.080000
   3 S    2.250000
   3 S    1.640000
   2 P    9.880000
   2 P    5.800000
   3 P    5.050000
   3 P    3.230000
   3 P    2.060000
   3 D    7.200000
   3 D    4.400000
   3 D    2.690000
   3 D    1.640000
   4 F    5.400000
   4 F    3.550000
   5 G    4.500000

 Atom Type    9  (C)
 ==============

 Valence Basis Sets:   9
 -----------------------
   1 S    7.680000
   1 S    5.000000
   2 S    1.280000
   2 S    2.100000
   2 S    4.600000
   2 P    0.820000
   2 P    1.480000
   2 P    2.940000
   3 D    2.200000

 Charge Fitting Sets (for the computation of the Coulomb Potential):  22
 -----------------------------------------------------------------------
   1 S   15.360000
   2 S   17.530000
   2 S   12.070000
   2 S    8.310000
   2 S    5.730000
   3 S    5.780000
   3 S    4.220000
   3 S    3.080000
   3 S    2.250000
   3 S    1.640000
   2 P    9.880000
   2 P    5.800000
   3 P    5.050000
   3 P    3.230000
   3 P    2.060000
   3 D    7.200000
   3 D    4.400000
   3 D    2.690000
   3 D    1.640000
   4 F    5.400000
   4 F    3.550000
   5 G    4.500000

 Atom Type   10  (P)
 ==============

 Valence Basis Sets:  13
 -----------------------
   1 S   18.000000
   1 S   13.350000
   2 S    5.600000
   2 S    4.050000
   2 P    7.450000
   2 P    4.100000
   3 S    2.700000
   3 S    1.850000
   3 S    1.300000
   3 P    2.300000
   3 P    1.350000
   3 P    0.850000
   3 D    1.900000

 Charge Fitting Sets (for the computation of the Coulomb Potential):  30
 -----------------------------------------------------------------------
   1 S   36.000000
   1 S   21.450000
   2 S   23.670000
   2 S   15.860000
   3 S   15.600000
   3 S   11.130000
   3 S    7.940000
   4 S    7.490000
   4 S    5.560000
   4 S    4.130000
   5 S    3.810000
   5 S    2.910000
   5 S    2.230000
   5 S    1.700000
   2 P   25.450000
   3 P   18.490000
   4 P   13.440000
   4 P    7.810000
   5 P    5.730000
   5 P    3.510000
   5 P    2.150000
   3 D   19.350000
   4 D   13.230000
   4 D    7.250000
   5 D    5.040000
   5 D    2.930000
   5 D    1.700000
   4 F    5.000000
   4 F    3.000000
   5 G    3.750000

 Atom Type   11  (F)
 ==============

 Valence Basis Sets:   9
 -----------------------
   1 S   10.880000
   1 S    7.700000
   2 S    3.240000
   2 S    1.940000
   2 S    0.740000
   2 P    4.540000
   2 P    2.300000
   2 P    1.240000
   3 D    2.000000

 Charge Fitting Sets (for the computation of the Coulomb Potential):  23
 -----------------------------------------------------------------------
   1 S   21.760000
   2 S   24.390000
   2 S   16.560000
   2 S   11.240000
   2 S    7.630000
   3 S    7.600000
   3 S    5.480000
   3 S    3.950000
   3 S    2.850000
   3 S    2.050000
   3 S    1.480000
   2 P   14.400000
   2 P    7.530000
   3 P    5.900000
   3 P    3.420000
   3 P    1.980000
   3 D    9.700000
   3 D    6.160000
   3 D    3.910000
   3 D    2.480000
   4 F    6.500000
   4 F    3.750000
   5 G    4.500000

 Atom Type   12  (H)
 ==============

 Valence Basis Sets:   4
 -----------------------
   1 S    0.690000
   1 S    0.920000
   1 S    1.580000
   2 P    1.250000

 Charge Fitting Sets (for the computation of the Coulomb Potential):  11
 -----------------------------------------------------------------------
   1 S    3.160000
   1 S    2.090000
   1 S    1.380000
   2 S    1.500000
   2 P    4.000000
   2 P    2.650000
   2 P    1.750000
   3 D    4.000000
   3 D    2.500000
   4 F    3.000000
   5 G    4.000000


 BAS: List of all Elementary Cartesian Basis Functions
 =====================================================

 The numbering in the list below (to the right of the function characteristics) is referred
 to in print-outs of MO eigenvectors and Mulliken populations in the BAS representation
 (as contrasted to the SFO representation).

 Notes:
 1. The functions are characterized by a polynomial prefactor (powers of x,y,z and r) and
    an exponential decay factor alpha.
 2. Since the basis sets are specific for an atom TYPE, the individual functions occur on
    all atoms of that type.
 3. The word 'Core' in the left margin signals that it is a Core Function (CF) : not a
    degree of freedom in the valence set, but only used to ensure orthogonalization of
    the other valence basis functions on the frozen Core Orbitals.


 (power of) X  Y  Z  R     Alpha  on Atom
            ==========     =====     ==========

 Pd                                   1
                                  ---------------------------------------------------------------------------
            0  0  0  0   306.000      1
            0  0  0  0    76.400      2
            0  0  0  0    45.900      3
            0  0  0  1    53.800      4
            0  0  0  1    19.550      5
            0  0  0  2    10.150      6
            0  0  0  2     6.650      7
            0  0  0  3     6.150      8
            0  0  0  3     3.900      9
            0  0  0  4     2.500     10
            0  0  0  4     1.450     11
            0  0  0  4     0.850     12
            1  0  0  0    29.100     13
            0  1  0  0    29.100     14
            0  0  1  0    29.100     15
            1  0  0  0    18.750     16
            0  1  0  0    18.750     17
            0  0  1  0    18.750     18
            1  0  0  1    11.250     19
            0  1  0  1    11.250     20
            0  0  1  1    11.250     21
            1  0  0  1     8.100     22
            0  1  0  1     8.100     23
            0  0  1  1     8.100     24
            1  0  0  2     5.950     25
            0  1  0  2     5.950     26
            0  0  1  2     5.950     27
            1  0  0  2     3.950     28
            0  1  0  2     3.950     29
            0  0  1  2     3.950     30
            1  0  0  2     2.700     31
            0  1  0  2     2.700     32
            0  0  1  2     2.700     33
            2  0  0  0    17.550     34
            1  1  0  0    17.550     35
            1  0  1  0    17.550     36
            0  2  0  0    17.550     37
            0  1  1  0    17.550     38
            0  0  2  0    17.550     39
            2  0  0  0    10.450     40
            1  1  0  0    10.450     41
            1  0  1  0    10.450     42
            0  2  0  0    10.450     43
            0  1  1  0    10.450     44
            0  0  2  0    10.450     45
            2  0  0  0     6.900     46
            1  1  0  0     6.900     47
            1  0  1  0     6.900     48
            0  2  0  0     6.900     49
            0  1  1  0     6.900     50
            0  0  2  0     6.900     51
            2  0  0  1     4.250     52
            1  1  0  1     4.250     53
            1  0  1  1     4.250     54
            0  2  0  1     4.250     55
            0  1  1  1     4.250     56
            0  0  2  1     4.250     57
            2  0  0  1     2.200     58
            1  1  0  1     2.200     59
            1  0  1  1     2.200     60
            0  2  0  1     2.200     61
            0  1  1  1     2.200     62
            0  0  2  1     2.200     63
            2  0  0  1     1.100     64
            1  1  0  1     1.100     65
            1  0  1  1     1.100     66
            0  2  0  1     1.100     67
            0  1  1  1     1.100     68
            0  0  2  1     1.100     69
            1  0  0  3     1.450     70
            0  1  0  3     1.450     71
            0  0  1  3     1.450     72

 Cl                                   2
                                  ---------------------------------------------------------------------------
            0  0  0  0    20.300     73
            0  0  0  0    15.250     74
            0  0  0  1     6.250     75
            0  0  0  1     4.450     76
            1  0  0  0     8.850     77
            0  1  0  0     8.850     78
            0  0  1  0     8.850     79
            1  0  0  0     5.050     80
            0  1  0  0     5.050     81
            0  0  1  0     5.050     82
            0  0  0  2     3.450     83
            0  0  0  2     2.300     84
            0  0  0  2     1.600     85
            1  0  0  1     3.350     86
            0  1  0  1     3.350     87
            0  0  1  1     3.350     88
            1  0  0  1     2.050     89
            0  1  0  1     2.050     90
            0  0  1  1     2.050     91
            1  0  0  1     1.200     92
            0  1  0  1     1.200     93
            0  0  1  1     1.200     94
            2  0  0  0     2.000     95
            1  1  0  0     2.000     96
            1  0  1  0     2.000     97
            0  2  0  0     2.000     98
            0  1  1  0     2.000     99
            0  0  2  0     2.000    100

 S                                    3
                                  ---------------------------------------------------------------------------
            0  0  0  0    19.400    101
            0  0  0  0    14.350    102
            0  0  0  1     5.900    103
            0  0  0  1     4.250    104
            1  0  0  0     8.050    105
            0  1  0  0     8.050    106
            0  0  1  0     8.050    107
            1  0  0  0     4.550    108
            0  1  0  0     4.550    109
            0  0  1  0     4.550    110
            0  0  0  2     3.450    111
            0  0  0  2     2.250    112
            0  0  0  2     1.500    113
            1  0  0  1     2.650    114
            0  1  0  1     2.650    115
            0  0  1  1     2.650    116
            1  0  0  1     1.600    117
            0  1  0  1     1.600    118
            0  0  1  1     1.600    119
            1  0  0  1     1.000    120
            0  1  0  1     1.000    121
            0  0  1  1     1.000    122
            2  0  0  0     2.100    123
            1  1  0  0     2.100    124
            1  0  1  0     2.100    125
            0  2  0  0     2.100    126
            0  1  1  0     2.100    127
            0  0  2  0     2.100    128

 H                                    4    5    6    7    8    9   10   11
                                  ---------------------------------------------------------------------------
            0  0  0  0     0.690    129  135  141  147  153  159  165  171
            0  0  0  0     0.920    130  136  142  148  154  160  166  172
            0  0  0  0     1.580    131  137  143  149  155  161  167  173
            1  0  0  0     1.250    132  138  144  150  156  162  168  174
            0  1  0  0     1.250    133  139  145  151  157  163  169  175
            0  0  1  0     1.250    134  140  146  152  158  164  170  176

 F                                   12   13   14   15
                                  ---------------------------------------------------------------------------
            0  0  0  0    10.880    177  197  217  237
            0  0  0  0     7.700    178  198  218  238
            0  0  0  1     3.240    179  199  219  239
            0  0  0  1     1.940    180  200  220  240
            0  0  0  1     0.740    181  201  221  241
            1  0  0  0     4.540    182  202  222  242
            0  1  0  0     4.540    183  203  223  243
            0  0  1  0     4.540    184  204  224  244
            1  0  0  0     2.300    185  205  225  245
            0  1  0  0     2.300    186  206  226  246
            0  0  1  0     2.300    187  207  227  247
            1  0  0  0     1.240    188  208  228  248
            0  1  0  0     1.240    189  209  229  249
            0  0  1  0     1.240    190  210  230  250
            2  0  0  0     2.000    191  211  231  251
            1  1  0  0     2.000    192  212  232  252
            1  0  1  0     2.000    193  213  233  253
            0  2  0  0     2.000    194  214  234  254
            0  1  1  0     2.000    195  215  235  255
            0  0  2  0     2.000    196  216  236  256

 O                                   16   17   18
                                  ---------------------------------------------------------------------------
            0  0  0  0     9.800    257  277  297
            0  0  0  0     6.800    258  278  298
            0  0  0  1     7.580    259  279  299
            0  0  0  1     2.880    260  280  300
            0  0  0  1     1.720    261  281  301
            1  0  0  0     4.080    262  282  302
            0  1  0  0     4.080    263  283  303
            0  0  1  0     4.080    264  284  304
            1  0  0  0     2.080    265  285  305
            0  1  0  0     2.080    266  286  306
            0  0  1  0     2.080    267  287  307
            1  0  0  0     1.120    268  288  308
            0  1  0  0     1.120    269  289  309
            0  0  1  0     1.120    270  290  310
            2  0  0  0     2.000    271  291  311
            1  1  0  0     2.000    272  292  312
            1  0  1  0     2.000    273  293  313
            0  2  0  0     2.000    274  294  314
            0  1  1  0     2.000    275  295  315
            0  0  2  0     2.000    276  296  316

 N                                   19
                                  ---------------------------------------------------------------------------
            0  0  0  0     8.740    317
            0  0  0  0     5.900    318
            0  0  0  1     5.150    319
            0  0  0  1     2.500    320
            0  0  0  1     1.500    321
            1  0  0  0     3.680    322
            0  1  0  0     3.680    323
            0  0  1  0     3.680    324
            1  0  0  0     1.880    325
            0  1  0  0     1.880    326
            0  0  1  0     1.880    327
            1  0  0  0     1.000    328
            0  1  0  0     1.000    329
            0  0  1  0     1.000    330
            2  0  0  0     2.200    331
            1  1  0  0     2.200    332
            1  0  1  0     2.200    333
            0  2  0  0     2.200    334
            0  1  1  0     2.200    335
            0  0  2  0     2.200    336

 C                                   20   21   22   23   24   25   26   27   28   29   30   31   32   33
                                  ---------------------------------------------------------------------------
            0  0  0  0     7.680    337  357  377  397  417  437  457  477  497  517  537  557  577  597
            0  0  0  0     5.000    338  358  378  398  418  438  458  478  498  518  538  558  578  598
            0  0  0  1     1.280    339  359  379  399  419  439  459  479  499  519  539  559  579  599
            0  0  0  1     2.100    340  360  380  400  420  440  460  480  500  520  540  560  580  600
            0  0  0  1     4.600    341  361  381  401  421  441  461  481  501  521  541  561  581  601
            1  0  0  0     0.820    342  362  382  402  422  442  462  482  502  522  542  562  582  602
            0  1  0  0     0.820    343  363  383  403  423  443  463  483  503  523  543  563  583  603
            0  0  1  0     0.820    344  364  384  404  424  444  464  484  504  524  544  564  584  604
            1  0  0  0     1.480    345  365  385  405  425  445  465  485  505  525  545  565  585  605
            0  1  0  0     1.480    346  366  386  406  426  446  466  486  506  526  546  566  586  606
            0  0  1  0     1.480    347  367  387  407  427  447  467  487  507  527  547  567  587  607
            1  0  0  0     2.940    348  368  388  408  428  448  468  488  508  528  548  568  588  608
            0  1  0  0     2.940    349  369  389  409  429  449  469  489  509  529  549  569  589  609
            0  0  1  0     2.940    350  370  390  410  430  450  470  490  510  530  550  570  590  610
            2  0  0  0     2.200    351  371  391  411  431  451  471  491  511  531  551  571  591  611
            1  1  0  0     2.200    352  372  392  412  432  452  472  492  512  532  552  572  592  612
            1  0  1  0     2.200    353  373  393  413  433  453  473  493  513  533  553  573  593  613
            0  2  0  0     2.200    354  374  394  414  434  454  474  494  514  534  554  574  594  614
            0  1  1  0     2.200    355  375  395  415  435  455  475  495  515  535  555  575  595  615
            0  0  2  0     2.200    356  376  396  416  436  456  476  496  516  536  556  576  596  616

 C                                   34   35   36   37   38   39   40   41   42   43   44   45   46   47   48
                                     49   50   51   52   53   54   55   56   57   58   59
                                  ---------------------------------------------------------------------------
            0  0  0  0     7.680    617  637  657  677  697  717  737  757  777  797  817  837  857  877  897
                                    917  937  957  977  997 1017 1037 1057 1077 1097 1117
            0  0  0  0     5.000    618  638  658  678  698  718  738  758  778  798  818  838  858  878  898
                                    918  938  958  978  998 1018 1038 1058 1078 1098 1118
            0  0  0  1     1.280    619  639  659  679  699  719  739  759  779  799  819  839  859  879  899
                                    919  939  959  979  999 1019 1039 1059 1079 1099 1119
            0  0  0  1     2.100    620  640  660  680  700  720  740  760  780  800  820  840  860  880  900
                                    920  940  960  980 1000 1020 1040 1060 1080 1100 1120
            0  0  0  1     4.600    621  641  661  681  701  721  741  761  781  801  821  841  861  881  901
                                    921  941  961  981 1001 1021 1041 1061 1081 1101 1121
            1  0  0  0     0.820    622  642  662  682  702  722  742  762  782  802  822  842  862  882  902
                                    922  942  962  982 1002 1022 1042 1062 1082 1102 1122
            0  1  0  0     0.820    623  643  663  683  703  723  743  763  783  803  823  843  863  883  903
                                    923  943  963  983 1003 1023 1043 1063 1083 1103 1123
            0  0  1  0     0.820    624  644  664  684  704  724  744  764  784  804  824  844  864  884  904
                                    924  944  964  984 1004 1024 1044 1064 1084 1104 1124
            1  0  0  0     1.480    625  645  665  685  705  725  745  765  785  805  825  845  865  885  905
                                    925  945  965  985 1005 1025 1045 1065 1085 1105 1125
            0  1  0  0     1.480    626  646  666  686  706  726  746  766  786  806  826  846  866  886  906
                                    926  946  966  986 1006 1026 1046 1066 1086 1106 1126
            0  0  1  0     1.480    627  647  667  687  707  727  747  767  787  807  827  847  867  887  907
                                    927  947  967  987 1007 1027 1047 1067 1087 1107 1127
            1  0  0  0     2.940    628  648  668  688  708  728  748  768  788  808  828  848  868  888  908
                                    928  948  968  988 1008 1028 1048 1068 1088 1108 1128
            0  1  0  0     2.940    629  649  669  689  709  729  749  769  789  809  829  849  869  889  909
                                    929  949  969  989 1009 1029 1049 1069 1089 1109 1129
            0  0  1  0     2.940    630  650  670  690  710  730  750  770  790  810  830  850  870  890  910
                                    930  950  970  990 1010 1030 1050 1070 1090 1110 1130
            2  0  0  0     2.200    631  651  671  691  711  731  751  771  791  811  831  851  871  891  911
                                    931  951  971  991 1011 1031 1051 1071 1091 1111 1131
            1  1  0  0     2.200    632  652  672  692  712  732  752  772  792  812  832  852  872  892  912
                                    932  952  972  992 1012 1032 1052 1072 1092 1112 1132
            1  0  1  0     2.200    633  653  673  693  713  733  753  773  793  813  833  853  873  893  913
                                    933  953  973  993 1013 1033 1053 1073 1093 1113 1133
            0  2  0  0     2.200    634  654  674  694  714  734  754  774  794  814  834  854  874  894  914
                                    934  954  974  994 1014 1034 1054 1074 1094 1114 1134
            0  1  1  0     2.200    635  655  675  695  715  735  755  775  795  815  835  855  875  895  915
                                    935  955  975  995 1015 1035 1055 1075 1095 1115 1135
            0  0  2  0     2.200    636  656  676  696  716  736  756  776  796  816  836  856  876  896  916
                                    936  956  976  996 1016 1036 1056 1076 1096 1116 1136

 P                                   60   61
                                  ---------------------------------------------------------------------------
            0  0  0  0    18.000   1137 1165
            0  0  0  0    13.350   1138 1166
            0  0  0  1     5.600   1139 1167
            0  0  0  1     4.050   1140 1168
            1  0  0  0     7.450   1141 1169
            0  1  0  0     7.450   1142 1170
            0  0  1  0     7.450   1143 1171
            1  0  0  0     4.100   1144 1172
            0  1  0  0     4.100   1145 1173
            0  0  1  0     4.100   1146 1174
            0  0  0  2     2.700   1147 1175
            0  0  0  2     1.850   1148 1176
            0  0  0  2     1.300   1149 1177
            1  0  0  1     2.300   1150 1178
            0  1  0  1     2.300   1151 1179
            0  0  1  1     2.300   1152 1180
            1  0  0  1     1.350   1153 1181
            0  1  0  1     1.350   1154 1182
            0  0  1  1     1.350   1155 1183
            1  0  0  1     0.850   1156 1184
            0  1  0  1     0.850   1157 1185
            0  0  1  1     0.850   1158 1186
            2  0  0  0     1.900   1159 1187
            1  1  0  0     1.900   1160 1188
            1  0  1  0     1.900   1161 1189
            0  2  0  0     1.900   1162 1190
            0  1  1  0     1.900   1163 1191
            0  0  2  0     1.900   1164 1192

 F                                   62   63   64   65   66   67   68   69   70   71   72   73   74   75   76
                                     77   78   79   80   81
                                  ---------------------------------------------------------------------------
            0  0  0  0    10.880   1193 1213 1233 1253 1273 1293 1313 1333 1353 1373 1393 1413 1433 1453 1473
                                   1493 1513 1533 1553 1573
            0  0  0  0     7.700   1194 1214 1234 1254 1274 1294 1314 1334 1354 1374 1394 1414 1434 1454 1474
                                   1494 1514 1534 1554 1574
            0  0  0  1     3.240   1195 1215 1235 1255 1275 1295 1315 1335 1355 1375 1395 1415 1435 1455 1475
                                   1495 1515 1535 1555 1575
            0  0  0  1     1.940   1196 1216 1236 1256 1276 1296 1316 1336 1356 1376 1396 1416 1436 1456 1476
                                   1496 1516 1536 1556 1576
            0  0  0  1     0.740   1197 1217 1237 1257 1277 1297 1317 1337 1357 1377 1397 1417 1437 1457 1477
                                   1497 1517 1537 1557 1577
            1  0  0  0     4.540   1198 1218 1238 1258 1278 1298 1318 1338 1358 1378 1398 1418 1438 1458 1478
                                   1498 1518 1538 1558 1578
            0  1  0  0     4.540   1199 1219 1239 1259 1279 1299 1319 1339 1359 1379 1399 1419 1439 1459 1479
                                   1499 1519 1539 1559 1579
            0  0  1  0     4.540   1200 1220 1240 1260 1280 1300 1320 1340 1360 1380 1400 1420 1440 1460 1480
                                   1500 1520 1540 1560 1580
            1  0  0  0     2.300   1201 1221 1241 1261 1281 1301 1321 1341 1361 1381 1401 1421 1441 1461 1481
                                   1501 1521 1541 1561 1581
            0  1  0  0     2.300   1202 1222 1242 1262 1282 1302 1322 1342 1362 1382 1402 1422 1442 1462 1482
                                   1502 1522 1542 1562 1582
            0  0  1  0     2.300   1203 1223 1243 1263 1283 1303 1323 1343 1363 1383 1403 1423 1443 1463 1483
                                   1503 1523 1543 1563 1583
            1  0  0  0     1.240   1204 1224 1244 1264 1284 1304 1324 1344 1364 1384 1404 1424 1444 1464 1484
                                   1504 1524 1544 1564 1584
            0  1  0  0     1.240   1205 1225 1245 1265 1285 1305 1325 1345 1365 1385 1405 1425 1445 1465 1485
                                   1505 1525 1545 1565 1585
            0  0  1  0     1.240   1206 1226 1246 1266 1286 1306 1326 1346 1366 1386 1406 1426 1446 1466 1486
                                   1506 1526 1546 1566 1586
            2  0  0  0     2.000   1207 1227 1247 1267 1287 1307 1327 1347 1367 1387 1407 1427 1447 1467 1487
                                   1507 1527 1547 1567 1587
            1  1  0  0     2.000   1208 1228 1248 1268 1288 1308 1328 1348 1368 1388 1408 1428 1448 1468 1488
                                   1508 1528 1548 1568 1588
            1  0  1  0     2.000   1209 1229 1249 1269 1289 1309 1329 1349 1369 1389 1409 1429 1449 1469 1489
                                   1509 1529 1549 1569 1589
            0  2  0  0     2.000   1210 1230 1250 1270 1290 1310 1330 1350 1370 1390 1410 1430 1450 1470 1490
                                   1510 1530 1550 1570 1590
            0  1  1  0     2.000   1211 1231 1251 1271 1291 1311 1331 1351 1371 1391 1411 1431 1451 1471 1491
                                   1511 1531 1551 1571 1591
            0  0  2  0     2.000   1212 1232 1252 1272 1292 1312 1332 1352 1372 1392 1412 1432 1452 1472 1492
                                   1512 1532 1552 1572 1592

 H                                   82   83   84   85
                                  ---------------------------------------------------------------------------
            0  0  0  0     0.690   1593 1599 1605 1611
            0  0  0  0     0.920   1594 1600 1606 1612
            0  0  0  0     1.580   1595 1601 1607 1613
            1  0  0  0     1.250   1596 1602 1608 1614
            0  1  0  0     1.250   1597 1603 1609 1615
            0  0  1  0     1.250   1598 1604 1610 1616

 Total number of charge fitting functions (nprimf)      6997
 Total number of Cartesian basis functions (naos)       1616
 Total number of Cartesian core functions  (ncos)          0

1
 ***************************************************************************************************



                                              ***********************
                                              *  T E C H N I C A L  *
                                              ***********************
  



 =============================================================
 P A R A L L E L I Z A T I O N  and  V E C T O R I Z A T I O N
 =============================================================
  
 Nr of parallel processes:                               16
 Maximum vector length in NumInt loops:                 128



 =====================
 S C F   U P D A T E S
 =====================
  
 Max. nr. of cycles:                               300
 Convergence criterion:                              0.0000010000
   secondary criterion:                              0.0010000000

 Mix parameter (when DIIS does not apply):           0.2000000000
 Mixed ADIIS+SDIIS will be used                  
    Max number of expansion vectors:                10
    Pure ADIIS when Max([F,P]) is above              0.1000000000
    Pure SDIIS when Max([F,P]) is below              0.0010000000
 Automatic ElectronSmearing (in case of problematic SCF convergence) disabled



 =================
 P R E C I S I O N  ***  (General: NumInt, NeglectFunctionTails, ...)  ***
 =================
  

 NumInt:           Target precision:                 8.0000000000
 -------           Initial precision:                8.0000000000
                   Min. precision (optimization):    8.0000000000

 Neglect Functions:          Basis functions:        0.1000000000E-09
 ------------------          Fit functions:          0.1000000000E-09



 ===========================
 L I N E A R   S C A L I N G
 ===========================
  

 Cut-off radii density fit:                        0.1000000000E-11
 Overlap cut-off criterion AO matrix elements:     0.1000000000E-09
 Cut-offs for Coulomb potential and fitted density:0.1000000000E-11
 Cut-off criterion for Coulomb multipole terms:    0.1000000000E-11
 Progressive Convergence parameter:                 0.000000000    
1
 ***************************************************************************************************



                                            ***************************
                                            *  C O M P U T A T I O N  *
[...]
     450        8.9220         0.000       
     449        8.8951         0.000       
     448        8.7891         0.000       
     447        8.6683         0.000       
     446        8.6146         0.000       
     445        8.6086         0.000       
     444        8.4382         0.000       
     443        8.3959         0.000       
     442        8.3591         0.000       
     441        8.3182         0.000       
     440        8.2533         0.000       
     439        8.1932         0.000       
     438        8.0571         0.000       
     437        8.0431         0.000       
     436        7.9792         0.000       
     435        7.9664         0.000       
     434        7.8449         0.000       
     433        7.7771         0.000       
     432        7.6926         0.000       
     431        7.6052         0.000       
     430        7.5329         0.000       
     429        7.5034         0.000       
     428        7.3897         0.000       
     427        7.3395         0.000       
     426        7.2580         0.000       
     425        7.1977         0.000       
     424        7.1015         0.000       
     423        7.0601         0.000       
     422        7.0269         0.000       
     421        6.9381         0.000       
     420        6.8942         0.000       
     419        6.8587         0.000       
     418        6.8127         0.000       
     417        6.7580         0.000       
     416        6.6365         0.000       
     415        6.6109         0.000       
     414        6.5426         0.000       
     413        6.4714         0.000       
     412        6.4228         0.000       
     411        6.3777         0.000       
     410        6.3103         0.000       
     409        6.2753         0.000       
     408        6.2593         0.000       
     407        6.1478         0.000       
     406        6.1314         0.000       
     405        6.0760         0.000       
     404        6.0522         0.000       
     403        5.9710         0.000       
     402        5.8055         0.000       
     401        5.6984         0.000       
     400        5.6496         0.000       
     399        5.6215         0.000       
     398        5.5102         0.000       
     397        5.4144         0.000       
     396        5.3925         0.000       
     395        5.3126         0.000       
     394        5.2295         0.000       
     393        5.0845         0.000       
     392        5.0179         0.000       
     391        4.9832         0.000       
     390        4.9038         0.000       
     389        4.8627         0.000       
     388        4.7722         0.000       
     387        4.7024         0.000       
     386        4.6399         0.000       
     385        4.5262         0.000       
     384        4.4781         0.000       
     383        4.4351         0.000       
     382        4.3270         0.000       
     381        4.2218         0.000       
     380        4.1712         0.000       
     379        4.1308         0.000       
     378        4.1137         0.000       
     377        4.0048         0.000       
     376        3.9647         0.000       
     375        3.8414         0.000       
     374        3.7880         0.000       
     373        3.7516         0.000       
     372        3.6636         0.000       
     371        3.6390         0.000       
     370        3.5310         0.000       
     369        3.4991         0.000       
     368        3.4700         0.000       
     367        3.3858         0.000       
     366        3.2838         0.000       
     365        3.2329         0.000       
     364        3.1521         0.000       
     363        3.1275         0.000       
     362        3.0533         0.000       
     361        2.9899         0.000       
     360        2.9050         0.000       
     359        2.8157         0.000       
     358        2.7810         0.000       
     357        2.7491         0.000       
     356        2.6858         0.000       
     355        2.6151         0.000       
     354        2.5818         0.000       
     353        2.5514         0.000       
     352        2.4407         0.000       
     351        2.3859         0.000       
     350        2.3541         0.000       
     349        2.3376         0.000       
     348        2.2934         0.000       
     347        2.1638         0.000       
     346        2.1038         0.000       
     345        2.0414         0.000       
     344        1.9383         0.000       
     343        1.9136         0.000       
     342        1.7898         0.000       
     341        1.7037         0.000       
     340        1.6100         0.000       
     339        1.5194         0.000       
     338        1.4799         0.000       
     337        1.4249         0.000       
     336        1.3272         0.000       
     335        1.2221         0.000       
     334        1.1994         0.000       
     333        1.1684         0.000       
     332        1.0328         0.000       
     331        0.8221         0.000       
     330        0.7668         0.000       
     329        0.7575         0.000       
     328        0.6973         0.000       
     327        0.5857         0.000       
     326        0.5247         0.000       
     325        0.4714         0.000       
     324        0.2740         0.000       
     323        0.2584         0.000       
     322        0.0267         0.000       
     321       -0.0145         0.000       
     320       -0.2620         0.000       
     319       -0.4113         0.000       
     318       -0.5852         0.000       
     317       -0.6893         0.000       
     316       -0.7839         0.000       
     315       -0.8386         0.000       
     314       -0.9939         0.000       
     313       -1.0619         0.000       
     312       -1.2262         0.000       
     311       -1.2680         0.000       
     310       -1.3233         0.000       
     309       -1.4964         0.000       
     308       -1.7363         0.000       
     307       -2.0072         0.000       
     306       -2.2294         0.000       
     305       -2.2607         0.000 < LUMO
     304       -6.1867         2.000 < HOMO
     303       -6.4735         2.000       
     302       -6.8627         2.000       
     301       -7.4097         2.000       
     300       -7.5111         2.000       
     299       -7.6843         2.000       
     298       -7.7872         2.000       
     297       -7.9749         2.000       
     296       -8.0297         2.000       
     295       -8.0920         2.000       
     294       -8.2099         2.000       
     293       -8.2228         2.000       
     292       -8.2833         2.000       
     291       -8.4164         2.000       
     290       -8.5620         2.000       
     289       -8.6125         2.000       
     288       -8.6511         2.000       
     287       -8.7522         2.000       
     286       -8.7803         2.000       
     285       -9.0522         2.000       
     284       -9.1782         2.000       
     283       -9.2309         2.000       
     282       -9.4531         2.000       
     281       -9.5864         2.000       
     280       -9.7958         2.000       
     279       -9.8809         2.000       
     278      -10.2255         2.000       
     277      -10.3351         2.000       
     276      -10.4426         2.000       
     275      -10.7111         2.000       
     274      -10.7730         2.000       
     273      -10.8390         2.000       
     272      -10.9379         2.000       
     271      -11.0417         2.000       
     270      -11.0822         2.000       
     269      -11.1826         2.000       
     268      -11.2357         2.000       
     267      -11.3608         2.000       
     266      -11.4064         2.000       
     265      -11.4265         2.000       
     264      -11.6117         2.000       
     263      -11.6928         2.000       
     262      -11.7290         2.000       
     261      -11.8635         2.000       
     260      -11.8926         2.000       
     259      -11.9235         2.000       
     258      -12.0578         2.000       
     257      -12.1320         2.000       
     256      -12.2323         2.000       
     255      -12.3065         2.000       
     254      -12.3562         2.000       
     253      -12.4521         2.000       
     252      -12.4699         2.000       
     251      -12.5996         2.000       
     250      -12.6156         2.000       
     249      -12.7647         2.000       
     248      -12.8132         2.000       
     247      -12.8300         2.000       
     246      -12.8876         2.000       
     245      -12.9286         2.000       
     244      -12.9890         2.000       
     243      -13.1037         2.000       
     242      -13.2102         2.000       
     241      -13.2287         2.000       
     240      -13.2947         2.000       
     239      -13.3732         2.000       
     238      -13.3998         2.000       
     237      -13.4209         2.000       
     236      -13.4611         2.000       
     235      -13.4891         2.000       
     234      -13.4965         2.000       
     233      -13.5782         2.000       
     232      -13.6311         2.000       
     231      -13.6896         2.000       
     230      -13.7026         2.000       
     229      -13.7311         2.000       
     228      -13.8011         2.000       
     227      -13.8486         2.000       
     226      -13.8946         2.000       
     225      -13.9160         2.000       
     224      -13.9898         2.000       
     223      -14.1302         2.000       
     222      -14.1475         2.000       
     221      -14.1747         2.000       
     220      -14.2447         2.000       
     219      -14.3107         2.000       
     218      -14.3693         2.000       
     217      -14.3947         2.000       
     216      -14.4293         2.000       
     215      -14.4906         2.000       
     214      -14.5915         2.000       
     213      -14.7151         2.000       
     212      -14.7583         2.000       
     211      -14.8899         2.000       
     210      -14.9284         2.000       
     209      -14.9832         2.000       
     208      -15.0188         2.000       
     207      -15.0834         2.000       
     206      -15.1675         2.000       
     205      -15.2462         2.000       
     204      -15.2784         2.000       
     203      -15.3844         2.000       
     202      -15.4518         2.000       
     201      -15.6524         2.000       
     200      -15.7101         2.000       
     199      -15.7668         2.000       
     198      -15.7991         2.000       
     197      -15.8605         2.000       
     196      -15.9014         2.000       
     195      -15.9242         2.000       
     194      -16.0015         2.000       
     193      -16.0639         2.000       
     192      -16.1184         2.000       
     191      -16.1728         2.000       
     190      -16.2561         2.000       
     189      -16.3104         2.000       
     188      -16.3357         2.000       
     187      -16.4028         2.000       
     186      -16.5262         2.000       
     185      -16.5387         2.000       
     184      -16.6080         2.000       
     183      -16.8613         2.000       
     182      -16.9847         2.000       
     181      -17.0656         2.000       
     180      -17.1218         2.000       
     179      -17.3093         2.000       
     178      -17.3677         2.000       
     177      -17.4177         2.000       
     176      -17.4676         2.000       
     175      -17.5908         2.000       
     174      -17.6497         2.000       
     173      -17.7531         2.000       
     172      -17.8689         2.000       
     171      -17.8735         2.000       
     170      -18.0032         2.000       
     169      -18.0399         2.000       
     168      -18.4973         2.000       
     167      -18.6025         2.000       
     166      -18.7466         2.000       
     165      -19.2683         2.000       
     164      -19.3138         2.000       
     163      -19.5398         2.000       
     162      -19.6306         2.000       
     161      -19.6611         2.000       
     160      -19.7728         2.000       
     159      -19.8020         2.000       
     158      -19.9708         2.000       
     157      -20.1437         2.000       
     156      -20.4021         2.000       
     155      -20.9672         2.000       
     154      -21.0442         2.000       
     153      -21.2212         2.000       
     152      -21.5480         2.000       
     151      -22.4202         2.000       
     150      -22.4402         2.000       
     149      -22.7091         2.000       
     148      -22.7603         2.000       
     147      -22.9327         2.000       
     146      -22.9364         2.000       
     145      -22.9455         2.000       
     144      -23.1509         2.000       
     143      -23.5957         2.000       
     142      -24.1310         2.000       
     141      -24.2432         2.000       
     140      -24.4190         2.000       
     139      -24.6594         2.000       
     138      -25.8276         2.000       
     137      -26.0968         2.000       
     136      -26.1976         2.000       
     135      -26.2973         2.000       
     134      -26.3791         2.000       
     133      -28.0027         2.000       
     132      -30.2996         2.000       
     131      -31.0223         2.000       
     130      -34.7867         2.000       
     129      -34.9076         2.000       
     128      -35.1849         2.000       
     127      -35.4187         2.000       
     126      -35.4293         2.000       
     125      -35.5761         2.000       
     124      -35.6888         2.000       
     123      -35.8157         2.000       
     122      -35.8498         2.000       
     121      -35.9015         2.000       
     120      -35.9336         2.000       
     119      -35.9929         2.000       
     118      -36.0669         2.000       
     117      -36.0770         2.000       
     116      -36.0811         2.000       
     115      -36.1371         2.000       
     114      -36.2395         2.000       
     113      -36.3121         2.000       
     112      -36.3344         2.000       
     111      -36.4148         2.000       
     110      -36.4764         2.000       
     109      -36.4895         2.000       
     108      -36.6341         2.000       
     107      -36.6517         2.000       
     106      -58.6283         2.000       
     105      -59.4370         2.000       
     104      -59.5613         2.000       
     103      -94.6402         2.000       
     102     -130.9567         2.000       
     101     -131.0458         2.000       
     100     -131.0671         2.000       
      99     -131.4334         2.000       
      98     -131.5152         2.000       
      97     -131.5377         2.000       
      96     -165.7676         2.000       
      95     -165.7886         2.000       
      94     -165.8045         2.000       
      93     -182.8337         2.000       
      92     -183.3011         2.000       
      91     -197.3392         2.000       
      90     -197.3536         2.000       
      89     -197.6312         2.000       
      88     -223.3315         2.000       
      87     -260.9864         2.000       
      86     -278.5370         2.000       
      85     -278.6048         2.000       
      84     -278.6555         2.000       
      83     -278.7443         2.000       
      82     -279.1419         2.000       
      81     -279.4137         2.000       
      80     -279.8811         2.000       
      79     -280.1015         2.000       
      78     -280.1970         2.000       
      77     -280.2480         2.000       
      76     -280.2690         2.000       
      75     -280.3897         2.000       
      74     -280.5209         2.000       
      73     -280.6319         2.000       
      72     -280.8225         2.000       
      71     -280.8536         2.000       
      70     -281.1991         2.000       
      69     -281.2881         2.000       
      68     -281.3137         2.000       
      67     -281.3734         2.000       
      66     -281.9552         2.000       
      65     -281.9944         2.000       
      64     -282.1806         2.000       
      63     -282.2117         2.000       
      62     -282.2236         2.000       
      61     -282.2362         2.000       
      60     -282.2948         2.000       
      59     -282.4689         2.000       
      58     -282.4694         2.000       
      57     -282.4897         2.000       
      56     -282.4938         2.000       
      55     -282.5299         2.000       
      54     -282.5430         2.000       
      53     -282.5446         2.000       
      52     -282.7027         2.000       
      51     -282.7160         2.000       
      50     -282.7214         2.000       
      49     -282.7458         2.000       
      48     -282.7565         2.000       
      47     -282.7572         2.000       
      46     -338.9374         2.000       
      45     -338.9770         2.000       
      44     -339.0506         2.000       
      43     -339.2240         2.000       
      42     -339.2312         2.000       
      41     -392.1639         2.000       
      40     -522.7270         2.000       
      39     -522.8361         2.000       
      38     -524.0839         2.000       
      37     -532.7380         2.000       
      36     -533.0600         2.000       
      35     -533.1743         2.000       
      34     -654.8316         2.000       
      33     -675.3117         2.000       
      32     -675.4311         2.000       
      31     -675.5434         2.000       
      30     -675.5530         2.000       
      29     -676.0071         2.000       
      28     -676.0311         2.000       
      27     -676.0976         2.000       
      26     -676.1891         2.000       
      25     -676.2301         2.000       
      24     -676.2855         2.000       
      23     -676.3611         2.000       
      22     -676.3789         2.000       
      21     -676.4458         2.000       
      20     -676.4764         2.000       
      19     -676.5146         2.000       
      18     -676.5160         2.000       
      17     -676.5226         2.000       
      16     -676.5616         2.000       
      15     -676.5918         2.000       
      14     -676.6146         2.000       
      13     -676.6963         2.000       
      12     -676.7229         2.000       
      11     -676.7743         2.000       
      10     -676.7996         2.000       
       9    -2108.9268         2.000       
       8    -2109.4259         2.000       
       7    -2435.1245         2.000       
       6    -2777.2087         2.000       
       5    -3190.9385         2.000       
       4    -3191.0769         2.000       
       3    -3191.1165         2.000       
       2    -3562.0051         2.000       
       1   -24225.0858         2.000       

AMS application finished. Exiting.
NORMAL TERMINATION
     Total cpu time:    5734.24
  Total system time:      48.68
 Total elapsed time:    5810.29
NORMAL TERMINATION
