

 Parallel Execution: Process Information
 ==============================================================================
 Rank   Node Name                              NodeID   MyNodeRank  NodeMaster
    0   eu-g5-002-4                               0          0          0
    1   eu-g5-002-4                               1          0          1
    2   eu-g5-002-4                               0          1         -1
    3   eu-g5-002-4                               1          1         -1
    4   eu-g5-002-4                               0          2         -1
    5   eu-g5-002-4                               2          0          2
    6   eu-g5-002-4                               0          3         -1
    7   eu-g5-002-4                               2          1         -1
    8   eu-g5-002-4                               0          4         -1
    9   eu-g5-002-4                               2          2         -1
   10   eu-g5-002-4                               0          5         -1
   11   eu-g5-002-4                               2          3         -1
   12   eu-g5-002-4                               0          6         -1
   13   eu-g5-002-4                               2          4         -1
   14   eu-g5-002-4                               0          7         -1
   15   eu-g5-002-4                               2          5         -1
 ==============================================================================


May use up to 30759MB of RAM as shared memory on node 0
May use up to 30759MB of RAM as shared memory on node 1
May use up to 30759MB of RAM as shared memory on node 2

 *******************************************************************************
 *                                                                             *
 *  --------------------------------                                           *
 *   Amsterdam Modeling Suite (AMS)              2023.101                      *
 *  --------------------------------                                           *
 *                                               r111868 2023-03-31            *
 *                                                                             *
 *                                                                             *
 *                              =================                              *
 *                              |               |                              *
 *                              |     A M S     |                              *
 *                              |               |                              *
 *                              =================                              *
 *                                                                             *
 *                                                                             *
 *   Online information and documentation:  https://www.scm.com/support/       *
 *   E-mail:  support@scm.com   info@scm.com                                   *
 *                                                                             *
 *   Scientific publications using AMS results must be properly referenced     *
 *   See the User Manuals (or the web site) for recommended citations          *
 *   The terms and conditions of the End User License Agreement apply to       *
 *   the use of AMS, https://www.scm.com/license-terms/                        *
 *                                                                             *
 ***********************  x86_64_linux_intel / openmpi  ************************
 
 Licensed to: D-CHAB / ETH site license / Zurich / Switzerland 2023-06-23 15:55:12
 SCM User ID: u7035
  
 AMS 2023.101  RunTime: May25-2024 09:19:20  ShM Nodes: 3  Procs: 16

 AMS jobname: gs_pmes3
 AMS jobid  : 1756120208

 Start   directory: /cluster/scratch/sroediger/michael/eda/
 Results directory: /cluster/scratch/sroediger/michael/eda/gs_pmes3.results/
 Scratch directory: /scratch/amstmp_gs_pmes3_kid0.1756120208/


 Communication costs MPI_COMM_WORLD:      7.923 usec per message,   0.0181 usec per 8-byte item
 Communication costs for intra-node:      3.090 usec per message,   0.0127 usec per 8-byte item

 RNG seed: 1897356330 -2049525987 262301043 1276000547 -644395272 565309160 2102101617 1914017811



                     *************************************************************************
                     *  ADF 2023.101  RunTime: May25-2024 09:19:20  ShM Nodes: 3  Procs: 16  *
                     *************************************************************************
  

       ****************************
       * SINGLE POINT CALCULATION *
       ****************************
 
--------
Geometry
--------
Formula: C41H41ClF4NO3PPdS
Atoms
  Index Symbol   x (angstrom)   y (angstrom)   z (angstrom)
      1     Pd    -0.15741900    -0.40091000    -0.64894100       region=pdsubstrate adf.f=pdsubstrate
      2      P     1.86951700    -0.18296800     0.50046000       region=ligand adf.f=ligand
      3      C    -1.07411300     1.32323500    -0.28506100       region=pdsubstrate adf.f=pdsubstrate
      4      C    -0.42760200     2.54129500    -0.50681300       region=pdsubstrate adf.f=pdsubstrate
      5      H     0.61381000     2.55990900    -0.81996100       region=pdsubstrate adf.f=pdsubstrate
      6      C    -1.06702800     3.75908200    -0.32514000       region=pdsubstrate adf.f=pdsubstrate
      7      H    -0.54470400     4.70247800    -0.49521800       region=pdsubstrate adf.f=pdsubstrate
      8      C    -2.40569000     3.78858000     0.07753800       region=pdsubstrate adf.f=pdsubstrate
      9      C    -3.07569500     2.58488700     0.28602000       region=pdsubstrate adf.f=pdsubstrate
     10      H    -4.12171600     2.58541300     0.58454000       region=pdsubstrate adf.f=pdsubstrate
     11      C    -2.42495500     1.34719300     0.11262200       region=pdsubstrate adf.f=pdsubstrate
     12      C    -3.20373600     0.11026800     0.33312200       region=pdsubstrate adf.f=pdsubstrate
     13      C    -4.16397600    -0.01117600     1.34029900       region=pdsubstrate adf.f=pdsubstrate
     14      C    -4.92570300    -1.16658900     1.49118400       region=pdsubstrate adf.f=pdsubstrate
     15      C    -4.71989900    -2.24361700     0.63467900       region=pdsubstrate adf.f=pdsubstrate
     16      C    -3.73873500    -2.16485100    -0.34927600       region=pdsubstrate adf.f=pdsubstrate
     17      C    -2.98345700    -0.99945100    -0.51396700       region=pdsubstrate adf.f=pdsubstrate
     18      N    -1.93202500    -0.97669100    -1.42717400       region=pdsubstrate adf.f=pdsubstrate
     19      S    -2.22653100    -0.95849000    -3.02488800       region=pdsubstrate adf.f=pdsubstrate
     20      O    -1.09139700    -1.57570700    -3.70506200       region=pdsubstrate adf.f=pdsubstrate
     21      O    -3.59469600    -1.39428300    -3.28861100       region=pdsubstrate adf.f=pdsubstrate
     22      C    -2.25079600     0.78331700    -3.54780400       region=pdsubstrate adf.f=pdsubstrate
     23     Cl    -0.65199600     1.49193400    -3.75297200       region=pdsubstrate adf.f=pdsubstrate
     24      H    -2.82033000     1.35189600    -2.80043900       region=pdsubstrate adf.f=pdsubstrate
     25      H    -2.77041000     0.77584900    -4.51485800       region=pdsubstrate adf.f=pdsubstrate
     26      F    -3.50014000    -3.23388300    -1.08738800       region=pdsubstrate adf.f=pdsubstrate
     27      F    -5.42375200    -3.35233100     0.79241300       region=pdsubstrate adf.f=pdsubstrate
     28      F    -5.82917900    -1.25047200     2.45676500       region=pdsubstrate adf.f=pdsubstrate
     29      F    -4.37936700     0.97247000     2.21517200       region=pdsubstrate adf.f=pdsubstrate
     30      O    -2.96790900     5.00684000     0.23218700       region=pdsubstrate adf.f=pdsubstrate
     31      C    -4.30384900     5.08010800     0.64154700       region=pdsubstrate adf.f=pdsubstrate
     32      H    -4.98606600     4.61077900    -0.08975900       region=pdsubstrate adf.f=pdsubstrate
     33      H    -4.55171200     6.14629500     0.72152300       region=pdsubstrate adf.f=pdsubstrate
     34      H    -4.46050700     4.60152700     1.62472900       region=pdsubstrate adf.f=pdsubstrate
     35      C     3.05153200    -1.23206200    -0.45826000       region=ligand adf.f=ligand
     36      C     2.50021500    -2.18609400    -1.34017300       region=ligand adf.f=ligand
     37      C     4.45694700    -1.08691500    -0.39207700       region=ligand adf.f=ligand
     38      C     3.33674500    -2.94179100    -2.16143000       region=ligand adf.f=ligand
     39      C     5.25193900    -1.85466400    -1.24741000       region=ligand adf.f=ligand
     40      C     4.72091500    -2.77707800    -2.14898400       region=ligand adf.f=ligand
     41      H     2.88656300    -3.67792400    -2.83313600       region=ligand adf.f=ligand
     42      H     6.33778500    -1.73638300    -1.18894000       region=ligand adf.f=ligand
     43      C     1.54296800    -0.93438500     2.16215200       region=ligand adf.f=ligand
     44      C     0.56863800    -0.28648800     2.96500000       region=ligand adf.f=ligand
     45      C     2.08171500    -2.17221500     2.60670300       region=ligand adf.f=ligand
     46      C     0.15073600    -0.87638900     4.15849700       region=ligand adf.f=ligand
     47      C     1.61164900    -2.71458000     3.80811500       region=ligand adf.f=ligand
     48      C     0.64380400    -2.10038200     4.59851600       region=ligand adf.f=ligand
     49      H    -0.59501800    -0.34914100     4.76088600       region=ligand adf.f=ligand
     50      H     2.03524300    -3.66664100     4.13927300       region=ligand adf.f=ligand
     51      C     2.69784000     1.45353900     0.56137800       region=ligand adf.f=ligand
     52      C     3.14673300     2.11619600     1.72885100       region=ligand adf.f=ligand
     53      C     2.87541300     2.07460200    -0.70442500       region=ligand adf.f=ligand
     54      C     3.67190900     3.40607700     1.60660100       region=ligand adf.f=ligand
     55      C     3.41411200     3.36212900    -0.75989700       region=ligand adf.f=ligand
     56      C     3.79717400     4.06083600     0.38305400       region=ligand adf.f=ligand
     57      H     4.01573100     3.90998900     2.51454200       region=ligand adf.f=ligand
     58      H     3.53635100     3.83016400    -1.74075900       region=ligand adf.f=ligand
     59      C    -0.06605200     1.03213900     2.63333300       region=ligand adf.f=ligand
     60      H     0.46498000     1.61842900     1.87641500       region=ligand adf.f=ligand
     61      H    -1.08544200     0.88205700     2.25124700       region=ligand adf.f=ligand
     62      H    -0.14913700     1.64725400     3.54166100       region=ligand adf.f=ligand
     63      C     1.02622200    -2.42711400    -1.44452300       region=ligand adf.f=ligand
     64      H     0.50776900    -2.35977000    -0.45769600       region=ligand adf.f=ligand
     65      H     0.55075800    -1.78721800    -2.21921300       region=ligand adf.f=ligand
     66      H     0.78833600    -3.44341500    -1.78691900       region=ligand adf.f=ligand
     67      C     2.55505300     1.40862300    -2.01290400       region=ligand adf.f=ligand
     68      H     3.32136200     0.66467500    -2.27935900       region=ligand adf.f=ligand
     69      H     1.59064500     0.87409400    -1.99688600       region=ligand adf.f=ligand
     70      H     2.50839800     2.15283300    -2.81878600       region=ligand adf.f=ligand
     71      C     3.14763300    -2.98005900     1.91603100       region=ligand adf.f=ligand
     72      H     2.82468300    -3.37324700     0.94302400       region=ligand adf.f=ligand
     73      H     4.06260300    -2.40381600     1.73437800       region=ligand adf.f=ligand
     74      H     3.41644500    -3.83751900     2.54670900       region=ligand adf.f=ligand
     75      C     0.14113300    -2.73915300     5.85765000       region=ligand adf.f=ligand
     76      H    -0.77207800    -3.32382500     5.65686500       region=ligand adf.f=ligand
     77      H     0.88346400    -3.42668600     6.28733300       region=ligand adf.f=ligand
     78      H    -0.11589700    -1.98639900     6.61693000       region=ligand adf.f=ligand
     79      C     5.17462600    -0.18958300     0.57582300       region=ligand adf.f=ligand
     80      H     5.22410000     0.84947900     0.21713600       region=ligand adf.f=ligand
     81      H     4.68876500    -0.16378600     1.55921800       region=ligand adf.f=ligand
     82      H     6.20476800    -0.54463500     0.71835600       region=ligand adf.f=ligand
     83      C     5.60313800    -3.55713700    -3.07614400       region=ligand adf.f=ligand
     84      H     5.20237700    -4.56402900    -3.26187700       region=ligand adf.f=ligand
     85      H     5.67890900    -3.05205200    -4.05346700       region=ligand adf.f=ligand
     86      H     6.62257800    -3.65650100    -2.67735700       region=ligand adf.f=ligand
     87      C     3.17212000     1.51924400     3.10905300       region=ligand adf.f=ligand
     88      H     2.21007600     1.63130100     3.62875900       region=ligand adf.f=ligand
     89      H     3.40165800     0.44706800     3.11080300       region=ligand adf.f=ligand
     90      H     3.93091800     2.03230300     3.71546000       region=ligand adf.f=ligand
     91      C     4.31953700     5.46340500     0.30000600       region=ligand adf.f=ligand
     92      H     3.49160800     6.18880700     0.36788100       region=ligand adf.f=ligand
     93      H     5.01587900     5.68516700     1.12141700       region=ligand adf.f=ligand
     94      H     4.83657000     5.64665800    -0.65279000       region=ligand adf.f=ligand
 
Total System Charge             0.00000
Bonding info available!
 
 
----------------
ADF Engine Input
----------------
 
 Basis
 Type TZP
 Core None
 End
 Fragments
 ligand ./gs_pmes3.ligand.results/adf.rkf
 pdsubstrate ./gs_pmes3.pdsubstrate.results/adf.rkf
 End
 XC
 Hybrid PBE0
 DISPERSION Grimme3 BJDAMP
 End
 NumericalQuality VeryGood
 

 Title: *** (NO TITLE) ***

 *** adf ***



 ===========================
 A T T A C H E D   F I L E S
 ===========================
  



 ===============================
 M O D E L   P A R A M E T E R S
 ===============================
  
 DENSITY FUNCTIONAL POTENTIAL (scf)
    Hybrid:                            PBE0                                    == Not Default ==

 SPIN  (restricted / unrestr.)
    Molecule:                          Restricted                               
    Fragments:                         Restricted                               

 OTHER ASPECTS
    Relativistic Corrections:          scalar (ZORA,MAPA)                       

    Nuclear Charge Density Model:      Point Charge Nuclei                      
    Core Treatment:                    Frozen Orbital(s)                        

    Hyperfine or Zeeman Interaction:   ---                                      

 Settings for Grimme D3 dispersion correction

      damping                        BJ
      s6                          1.000
      s8                          1.218
      a1                          0.414
      a2                          4.859

 Other (technical) parameters

      alpha                      14.000
      version                         4
 


 Fragment File(s)
 ----------------
 pdsubstrate:
         file : ./gs_pmes3.pdsubstrate.results/adf.rkf
         jobid: 162596093
         title: *** adf ***
 ligand:
         file : ./gs_pmes3.ligand.results/adf.rkf
         jobid: 258947256
         title: *** adf ***



 ===============
 G E O M E T R Y  ***  3D  Molecule  ***
 ===============
  

 ATOMS
 =====                            X Y Z                    CHARGE
                                (Angstrom)             Nucl     +Core       At.Mass
                       --------------------------    ----------------       -------
    1  Pd             -0.1574   -0.4009   -0.6489     46.00     46.00      105.9035
    2  P               1.8695   -0.1830    0.5005     15.00     15.00       30.9738
    3  C              -1.0741    1.3232   -0.2851      6.00      6.00       12.0000
    4  C              -0.4276    2.5413   -0.5068      6.00      6.00       12.0000
    5  H               0.6138    2.5599   -0.8200      1.00      1.00        1.0078
    6  C              -1.0670    3.7591   -0.3251      6.00      6.00       12.0000
    7  H              -0.5447    4.7025   -0.4952      1.00      1.00        1.0078
    8  C              -2.4057    3.7886    0.0775      6.00      6.00       12.0000
    9  C              -3.0757    2.5849    0.2860      6.00      6.00       12.0000
   10  H              -4.1217    2.5854    0.5845      1.00      1.00        1.0078
   11  C              -2.4250    1.3472    0.1126      6.00      6.00       12.0000
   12  C              -3.2037    0.1103    0.3331      6.00      6.00       12.0000
   13  C              -4.1640   -0.0112    1.3403      6.00      6.00       12.0000
   14  C              -4.9257   -1.1666    1.4912      6.00      6.00       12.0000
   15  C              -4.7199   -2.2436    0.6347      6.00      6.00       12.0000
   16  C              -3.7387   -2.1649   -0.3493      6.00      6.00       12.0000
   17  C              -2.9835   -0.9995   -0.5140      6.00      6.00       12.0000
   18  N              -1.9320   -0.9767   -1.4272      7.00      7.00       14.0031
   19  S              -2.2265   -0.9585   -3.0249     16.00     16.00       31.9721
   20  O              -1.0914   -1.5757   -3.7051      8.00      8.00       15.9949
   21  O              -3.5947   -1.3943   -3.2886      8.00      8.00       15.9949
   22  C              -2.2508    0.7833   -3.5478      6.00      6.00       12.0000
   23  Cl             -0.6520    1.4919   -3.7530     17.00     17.00       34.9689
   24  H              -2.8203    1.3519   -2.8004      1.00      1.00        1.0078
   25  H              -2.7704    0.7758   -4.5149      1.00      1.00        1.0078
   26  F              -3.5001   -3.2339   -1.0874      9.00      9.00       18.9984
   27  F              -5.4238   -3.3523    0.7924      9.00      9.00       18.9984
   28  F              -5.8292   -1.2505    2.4568      9.00      9.00       18.9984
   29  F              -4.3794    0.9725    2.2152      9.00      9.00       18.9984
   30  O              -2.9679    5.0068    0.2322      8.00      8.00       15.9949
   31  C              -4.3038    5.0801    0.6415      6.00      6.00       12.0000
   32  H              -4.9861    4.6108   -0.0898      1.00      1.00        1.0078
   33  H              -4.5517    6.1463    0.7215      1.00      1.00        1.0078
   34  H              -4.4605    4.6015    1.6247      1.00      1.00        1.0078
   35  C               3.0515   -1.2321   -0.4583      6.00      6.00       12.0000
   36  C               2.5002   -2.1861   -1.3402      6.00      6.00       12.0000
   37  C               4.4569   -1.0869   -0.3921      6.00      6.00       12.0000
   38  C               3.3367   -2.9418   -2.1614      6.00      6.00       12.0000
   39  C               5.2519   -1.8547   -1.2474      6.00      6.00       12.0000
   40  C               4.7209   -2.7771   -2.1490      6.00      6.00       12.0000
   41  H               2.8866   -3.6779   -2.8331      1.00      1.00        1.0078
   42  H               6.3378   -1.7364   -1.1889      1.00      1.00        1.0078
   43  C               1.5430   -0.9344    2.1622      6.00      6.00       12.0000
   44  C               0.5686   -0.2865    2.9650      6.00      6.00       12.0000
   45  C               2.0817   -2.1722    2.6067      6.00      6.00       12.0000
   46  C               0.1507   -0.8764    4.1585      6.00      6.00       12.0000
   47  C               1.6116   -2.7146    3.8081      6.00      6.00       12.0000
   48  C               0.6438   -2.1004    4.5985      6.00      6.00       12.0000
   49  H              -0.5950   -0.3491    4.7609      1.00      1.00        1.0078
   50  H               2.0352   -3.6666    4.1393      1.00      1.00        1.0078
   51  C               2.6978    1.4535    0.5614      6.00      6.00       12.0000
   52  C               3.1467    2.1162    1.7289      6.00      6.00       12.0000
   53  C               2.8754    2.0746   -0.7044      6.00      6.00       12.0000
   54  C               3.6719    3.4061    1.6066      6.00      6.00       12.0000
   55  C               3.4141    3.3621   -0.7599      6.00      6.00       12.0000
   56  C               3.7972    4.0608    0.3831      6.00      6.00       12.0000
   57  H               4.0157    3.9100    2.5145      1.00      1.00        1.0078
   58  H               3.5364    3.8302   -1.7408      1.00      1.00        1.0078
   59  C              -0.0661    1.0321    2.6333      6.00      6.00       12.0000
   60  H               0.4650    1.6184    1.8764      1.00      1.00        1.0078
   61  H              -1.0854    0.8821    2.2512      1.00      1.00        1.0078
   62  H              -0.1491    1.6473    3.5417      1.00      1.00        1.0078
   63  C               1.0262   -2.4271   -1.4445      6.00      6.00       12.0000
   64  H               0.5078   -2.3598   -0.4577      1.00      1.00        1.0078
   65  H               0.5508   -1.7872   -2.2192      1.00      1.00        1.0078
   66  H               0.7883   -3.4434   -1.7869      1.00      1.00        1.0078
   67  C               2.5551    1.4086   -2.0129      6.00      6.00       12.0000
   68  H               3.3214    0.6647   -2.2794      1.00      1.00        1.0078
   69  H               1.5906    0.8741   -1.9969      1.00      1.00        1.0078
   70  H               2.5084    2.1528   -2.8188      1.00      1.00        1.0078
   71  C               3.1476   -2.9801    1.9160      6.00      6.00       12.0000
   72  H               2.8247   -3.3732    0.9430      1.00      1.00        1.0078
   73  H               4.0626   -2.4038    1.7344      1.00      1.00        1.0078
   74  H               3.4164   -3.8375    2.5467      1.00      1.00        1.0078
   75  C               0.1411   -2.7392    5.8576      6.00      6.00       12.0000
   76  H              -0.7721   -3.3238    5.6569      1.00      1.00        1.0078
   77  H               0.8835   -3.4267    6.2873      1.00      1.00        1.0078
   78  H              -0.1159   -1.9864    6.6169      1.00      1.00        1.0078
   79  C               5.1746   -0.1896    0.5758      6.00      6.00       12.0000
   80  H               5.2241    0.8495    0.2171      1.00      1.00        1.0078
   81  H               4.6888   -0.1638    1.5592      1.00      1.00        1.0078
   82  H               6.2048   -0.5446    0.7184      1.00      1.00        1.0078
   83  C               5.6031   -3.5571   -3.0761      6.00      6.00       12.0000
   84  H               5.2024   -4.5640   -3.2619      1.00      1.00        1.0078
   85  H               5.6789   -3.0521   -4.0535      1.00      1.00        1.0078
   86  H               6.6226   -3.6565   -2.6774      1.00      1.00        1.0078
   87  C               3.1721    1.5192    3.1091      6.00      6.00       12.0000
   88  H               2.2101    1.6313    3.6288      1.00      1.00        1.0078
   89  H               3.4017    0.4471    3.1108      1.00      1.00        1.0078
   90  H               3.9309    2.0323    3.7155      1.00      1.00        1.0078
   91  C               4.3195    5.4634    0.3000      6.00      6.00       12.0000
   92  H               3.4916    6.1888    0.3679      1.00      1.00        1.0078
   93  H               5.0159    5.6852    1.1214      1.00      1.00        1.0078
   94  H               4.8366    5.6467   -0.6528      1.00      1.00        1.0078


 FRAGMENTS
 =========                                     Atoms in this Fragment     Cart. coord.s (Angstrom)
                                               -------------------------------------------------------
    1  pdsubstrate                                       1  Pd          -0.1574   -0.4009   -0.6489
                                                        34  H           -4.4605    4.6015    1.6247
                                                         5  H            0.6138    2.5599   -0.8200
                                                         7  H           -0.5447    4.7025   -0.4952
                                                        10  H           -4.1217    2.5854    0.5845
                                                        24  H           -2.8203    1.3519   -2.8004
                                                        25  H           -2.7704    0.7758   -4.5149
                                                        32  H           -4.9861    4.6108   -0.0898
                                                        33  H           -4.5517    6.1463    0.7215
                                                         3  C           -1.0741    1.3232   -0.2851
                                                         4  C           -0.4276    2.5413   -0.5068
                                                         6  C           -1.0670    3.7591   -0.3251
                                                         8  C           -2.4057    3.7886    0.0775
                                                         9  C           -3.0757    2.5849    0.2860
                                                        11  C           -2.4250    1.3472    0.1126
                                                        12  C           -3.2037    0.1103    0.3331
                                                        13  C           -4.1640   -0.0112    1.3403
                                                        14  C           -4.9257   -1.1666    1.4912
                                                        15  C           -4.7199   -2.2436    0.6347
                                                        16  C           -3.7387   -2.1649   -0.3493
                                                        17  C           -2.9835   -0.9995   -0.5140
                                                        22  C           -2.2508    0.7833   -3.5478
                                                        31  C           -4.3038    5.0801    0.6415
                                                        18  N           -1.9320   -0.9767   -1.4272
                                                        19  S           -2.2265   -0.9585   -3.0249
                                                        20  O           -1.0914   -1.5757   -3.7051
                                                        21  O           -3.5947   -1.3943   -3.2886
                                                        30  O           -2.9679    5.0068    0.2322
                                                        23  Cl          -0.6520    1.4919   -3.7530
                                                        26  F           -3.5001   -3.2339   -1.0874
                                                        27  F           -5.4238   -3.3523    0.7924
                                                        28  F           -5.8292   -1.2505    2.4568
                                                        29  F           -4.3794    0.9725    2.2152
    2  ligand                                           62  H           -0.1491    1.6473    3.5417
                                                        64  H            0.5078   -2.3598   -0.4577
                                                        65  H            0.5508   -1.7872   -2.2192
                                                        66  H            0.7883   -3.4434   -1.7869
                                                        68  H            3.3214    0.6647   -2.2794
                                                        69  H            1.5906    0.8741   -1.9969
                                                        70  H            2.5084    2.1528   -2.8188
                                                        72  H            2.8247   -3.3732    0.9430
                                                        73  H            4.0626   -2.4038    1.7344
                                                        74  H            3.4164   -3.8375    2.5467
                                                        76  H           -0.7721   -3.3238    5.6569
                                                        77  H            0.8835   -3.4267    6.2873
                                                        78  H           -0.1159   -1.9864    6.6169
                                                        80  H            5.2241    0.8495    0.2171
                                                        81  H            4.6888   -0.1638    1.5592
                                                        82  H            6.2048   -0.5446    0.7184
                                                        84  H            5.2024   -4.5640   -3.2619
                                                        85  H            5.6789   -3.0521   -4.0535
                                                        86  H            6.6226   -3.6565   -2.6774
                                                        88  H            2.2101    1.6313    3.6288
                                                        89  H            3.4017    0.4471    3.1108
                                                        90  H            3.9309    2.0323    3.7155
                                                        92  H            3.4916    6.1888    0.3679
                                                        93  H            5.0159    5.6852    1.1214
                                                        94  H            4.8366    5.6467   -0.6528
                                                        41  H            2.8866   -3.6779   -2.8331
                                                        42  H            6.3378   -1.7364   -1.1889
                                                        49  H           -0.5950   -0.3491    4.7609
                                                        50  H            2.0352   -3.6666    4.1393
                                                        57  H            4.0157    3.9100    2.5145
                                                        58  H            3.5364    3.8302   -1.7408
                                                        60  H            0.4650    1.6184    1.8764
                                                        61  H           -1.0854    0.8821    2.2512
                                                         2  P            1.8695   -0.1830    0.5005
                                                        63  C            1.0262   -2.4271   -1.4445
                                                        67  C            2.5551    1.4086   -2.0129
                                                        71  C            3.1476   -2.9801    1.9160
                                                        75  C            0.1411   -2.7392    5.8576
                                                        79  C            5.1746   -0.1896    0.5758
                                                        83  C            5.6031   -3.5571   -3.0761
                                                        87  C            3.1721    1.5192    3.1091
                                                        91  C            4.3195    5.4634    0.3000
                                                        35  C            3.0515   -1.2321   -0.4583
                                                        36  C            2.5002   -2.1861   -1.3402
                                                        37  C            4.4569   -1.0869   -0.3921
                                                        38  C            3.3367   -2.9418   -2.1614
                                                        39  C            5.2519   -1.8547   -1.2474
                                                        40  C            4.7209   -2.7771   -2.1490
                                                        43  C            1.5430   -0.9344    2.1622
                                                        44  C            0.5686   -0.2865    2.9650
                                                        45  C            2.0817   -2.1722    2.6067
                                                        46  C            0.1507   -0.8764    4.1585
                                                        47  C            1.6116   -2.7146    3.8081
                                                        48  C            0.6438   -2.1004    4.5985
                                                        51  C            2.6978    1.4535    0.5614
                                                        52  C            3.1467    2.1162    1.7289
                                                        53  C            2.8754    2.0746   -0.7044
                                                        54  C            3.6719    3.4061    1.6066
                                                        55  C            3.4141    3.3621   -0.7599
                                                        56  C            3.7972    4.0608    0.3831
                                                        59  C           -0.0661    1.0321    2.6333



 =====================================
 S Y M M E T R Y ,   E L E C T R O N S
 =====================================
  
 Symmetry: NOSYM

 Irreducible Representations, including subspecies
 -------------------------------------------------
 A


 Configuration of Valence Electrons
 ==================================
 ( determined in the SCF procedure )

 Total:   448

 Net Charge: 0 (Nuclei minus Electrons)

 Aufbau principle for MO occupations will be applied through SCF cycle no.     150
 Thereafter, the program will assign electrons to MOs that are spatially
 similar to the occupied MOs in a "reference" cycle ("KeepOrbitals").
 The reference cycle is always the PREVIOUS cycle: it will evolve with
 the SCF procedure.
1
 ***************************************************************************************************



                                      ****************************************
                                      *  B U I L D : (Fragments, Functions)  *
                                      ****************************************
  

 The individual fragments are copies of the corresponding 'Master' fragments defined on the fragment files.
 However, they may have been rotated (and translated) with respect to the Master. The local coordinate axes
 of each fragment (which define for instance the spatial orientation in the current molecule of a fragment
 P:x orbital) are not necessarily those of the molecule.
 The local frame (if different from the molecular one) is printed to enable an interpretation of the expan-
 sion of an MO in Fragment Orbitals.



                                         *********************************
                                         *  Fragment Type : pdsubstrate  *
                                         *********************************
  

 Fragment no.    1   (in the list of all fragments)
 -----------------
 The local coordinate frame is identical to the molecular frame.

 Check Atomic Coordinates:

                  Master (on file)          After Computed Tranformation               As specified on Input
           ----------------------------     ----------------------------     ---------------------------------
     1)    -0.15742  -0.40091  -0.64894     -0.15742  -0.40091  -0.64894       1  -0.15742  -0.40091  -0.64894
     2)    -4.46051   4.60153   1.62473     -4.46051   4.60153   1.62473      34  -4.46051   4.60153   1.62473
     3)     0.61381   2.55991  -0.81996      0.61381   2.55991  -0.81996       5   0.61381   2.55991  -0.81996
     4)    -0.54470   4.70248  -0.49522     -0.54470   4.70248  -0.49522       7  -0.54470   4.70248  -0.49522
     5)    -4.12172   2.58541   0.58454     -4.12172   2.58541   0.58454      10  -4.12172   2.58541   0.58454
     6)    -2.82033   1.35190  -2.80044     -2.82033   1.35190  -2.80044      24  -2.82033   1.35190  -2.80044
     7)    -2.77041   0.77585  -4.51486     -2.77041   0.77585  -4.51486      25  -2.77041   0.77585  -4.51486
     8)    -4.98607   4.61078  -0.08976     -4.98607   4.61078  -0.08976      32  -4.98607   4.61078  -0.08976
     9)    -4.55171   6.14630   0.72152     -4.55171   6.14630   0.72152      33  -4.55171   6.14630   0.72152
    10)    -1.07411   1.32323  -0.28506     -1.07411   1.32323  -0.28506       3  -1.07411   1.32323  -0.28506
    11)    -0.42760   2.54129  -0.50681     -0.42760   2.54129  -0.50681       4  -0.42760   2.54129  -0.50681
    12)    -1.06703   3.75908  -0.32514     -1.06703   3.75908  -0.32514       6  -1.06703   3.75908  -0.32514
    13)    -2.40569   3.78858   0.07754     -2.40569   3.78858   0.07754       8  -2.40569   3.78858   0.07754
    14)    -3.07570   2.58489   0.28602     -3.07570   2.58489   0.28602       9  -3.07570   2.58489   0.28602
    15)    -2.42496   1.34719   0.11262     -2.42496   1.34719   0.11262      11  -2.42496   1.34719   0.11262
    16)    -3.20374   0.11027   0.33312     -3.20374   0.11027   0.33312      12  -3.20374   0.11027   0.33312
    17)    -4.16398  -0.01118   1.34030     -4.16398  -0.01118   1.34030      13  -4.16398  -0.01118   1.34030
    18)    -4.92570  -1.16659   1.49118     -4.92570  -1.16659   1.49118      14  -4.92570  -1.16659   1.49118
    19)    -4.71990  -2.24362   0.63468     -4.71990  -2.24362   0.63468      15  -4.71990  -2.24362   0.63468
    20)    -3.73874  -2.16485  -0.34928     -3.73874  -2.16485  -0.34928      16  -3.73874  -2.16485  -0.34928
    21)    -2.98346  -0.99945  -0.51397     -2.98346  -0.99945  -0.51397      17  -2.98346  -0.99945  -0.51397
    22)    -2.25080   0.78332  -3.54780     -2.25080   0.78332  -3.54780      22  -2.25080   0.78332  -3.54780
    23)    -4.30385   5.08011   0.64155     -4.30385   5.08011   0.64155      31  -4.30385   5.08011   0.64155
    24)    -1.93203  -0.97669  -1.42717     -1.93203  -0.97669  -1.42717      18  -1.93203  -0.97669  -1.42717
    25)    -2.22653  -0.95849  -3.02489     -2.22653  -0.95849  -3.02489      19  -2.22653  -0.95849  -3.02489
    26)    -1.09140  -1.57571  -3.70506     -1.09140  -1.57571  -3.70506      20  -1.09140  -1.57571  -3.70506
    27)    -3.59470  -1.39428  -3.28861     -3.59470  -1.39428  -3.28861      21  -3.59470  -1.39428  -3.28861
    28)    -2.96791   5.00684   0.23219     -2.96791   5.00684   0.23219      30  -2.96791   5.00684   0.23219
    29)    -0.65200   1.49193  -3.75297     -0.65200   1.49193  -3.75297      23  -0.65200   1.49193  -3.75297
    30)    -3.50014  -3.23388  -1.08739     -3.50014  -3.23388  -1.08739      26  -3.50014  -3.23388  -1.08739
    31)    -5.42375  -3.35233   0.79241     -5.42375  -3.35233   0.79241      27  -5.42375  -3.35233   0.79241
    32)    -5.82918  -1.25047   2.45676     -5.82918  -1.25047   2.45676      28  -5.82918  -1.25047   2.45676
    33)    -4.37937   0.97247   2.21517     -4.37937   0.97247   2.21517      29  -4.37937   0.97247   2.21517



                                            ****************************
                                            *  Fragment Type : ligand  *
                                            ****************************
  

 Fragment no.    2   (in the list of all fragments)
 -----------------
 The local coordinate frame is identical to the molecular frame.

 Check Atomic Coordinates:

                  Master (on file)          After Computed Tranformation               As specified on Input
           ----------------------------     ----------------------------     ---------------------------------
     1)    -0.14914   1.64725   3.54166     -0.14914   1.64725   3.54166      62  -0.14914   1.64725   3.54166
     2)     0.50777  -2.35977  -0.45770      0.50777  -2.35977  -0.45770      64   0.50777  -2.35977  -0.45770
     3)     0.55076  -1.78722  -2.21921      0.55076  -1.78722  -2.21921      65   0.55076  -1.78722  -2.21921
     4)     0.78834  -3.44341  -1.78692      0.78834  -3.44341  -1.78692      66   0.78834  -3.44341  -1.78692
     5)     3.32136   0.66468  -2.27936      3.32136   0.66468  -2.27936      68   3.32136   0.66468  -2.27936
     6)     1.59065   0.87409  -1.99689      1.59065   0.87409  -1.99689      69   1.59065   0.87409  -1.99689
     7)     2.50840   2.15283  -2.81879      2.50840   2.15283  -2.81879      70   2.50840   2.15283  -2.81879
     8)     2.82468  -3.37325   0.94302      2.82468  -3.37325   0.94302      72   2.82468  -3.37325   0.94302
     9)     4.06260  -2.40382   1.73438      4.06260  -2.40382   1.73438      73   4.06260  -2.40382   1.73438
    10)     3.41644  -3.83752   2.54671      3.41644  -3.83752   2.54671      74   3.41644  -3.83752   2.54671
    11)    -0.77208  -3.32382   5.65686     -0.77208  -3.32382   5.65686      76  -0.77208  -3.32382   5.65686
    12)     0.88346  -3.42669   6.28733      0.88346  -3.42669   6.28733      77   0.88346  -3.42669   6.28733
    13)    -0.11590  -1.98640   6.61693     -0.11590  -1.98640   6.61693      78  -0.11590  -1.98640   6.61693
    14)     5.22410   0.84948   0.21714      5.22410   0.84948   0.21714      80   5.22410   0.84948   0.21714
    15)     4.68877  -0.16379   1.55922      4.68877  -0.16379   1.55922      81   4.68877  -0.16379   1.55922
    16)     6.20477  -0.54463   0.71836      6.20477  -0.54463   0.71836      82   6.20477  -0.54463   0.71836
    17)     5.20238  -4.56403  -3.26188      5.20238  -4.56403  -3.26188      84   5.20238  -4.56403  -3.26188
    18)     5.67891  -3.05205  -4.05347      5.67891  -3.05205  -4.05347      85   5.67891  -3.05205  -4.05347
    19)     6.62258  -3.65650  -2.67736      6.62258  -3.65650  -2.67736      86   6.62258  -3.65650  -2.67736
    20)     2.21008   1.63130   3.62876      2.21008   1.63130   3.62876      88   2.21008   1.63130   3.62876
    21)     3.40166   0.44707   3.11080      3.40166   0.44707   3.11080      89   3.40166   0.44707   3.11080
    22)     3.93092   2.03230   3.71546      3.93092   2.03230   3.71546      90   3.93092   2.03230   3.71546
    23)     3.49161   6.18881   0.36788      3.49161   6.18881   0.36788      92   3.49161   6.18881   0.36788
    24)     5.01588   5.68517   1.12142      5.01588   5.68517   1.12142      93   5.01588   5.68517   1.12142
    25)     4.83657   5.64666  -0.65279      4.83657   5.64666  -0.65279      94   4.83657   5.64666  -0.65279
    26)     2.88656  -3.67792  -2.83314      2.88656  -3.67792  -2.83314      41   2.88656  -3.67792  -2.83314
    27)     6.33779  -1.73638  -1.18894      6.33779  -1.73638  -1.18894      42   6.33779  -1.73638  -1.18894
    28)    -0.59502  -0.34914   4.76089     -0.59502  -0.34914   4.76089      49  -0.59502  -0.34914   4.76089
    29)     2.03524  -3.66664   4.13927      2.03524  -3.66664   4.13927      50   2.03524  -3.66664   4.13927
    30)     4.01573   3.90999   2.51454      4.01573   3.90999   2.51454      57   4.01573   3.90999   2.51454
    31)     3.53635   3.83016  -1.74076      3.53635   3.83016  -1.74076      58   3.53635   3.83016  -1.74076
    32)     0.46498   1.61843   1.87641      0.46498   1.61843   1.87641      60   0.46498   1.61843   1.87641
    33)    -1.08544   0.88206   2.25125     -1.08544   0.88206   2.25125      61  -1.08544   0.88206   2.25125
    34)     1.86952  -0.18297   0.50046      1.86952  -0.18297   0.50046       2   1.86952  -0.18297   0.50046
    35)     1.02622  -2.42711  -1.44452      1.02622  -2.42711  -1.44452      63   1.02622  -2.42711  -1.44452
    36)     2.55505   1.40862  -2.01290      2.55505   1.40862  -2.01290      67   2.55505   1.40862  -2.01290
    37)     3.14763  -2.98006   1.91603      3.14763  -2.98006   1.91603      71   3.14763  -2.98006   1.91603
    38)     0.14113  -2.73915   5.85765      0.14113  -2.73915   5.85765      75   0.14113  -2.73915   5.85765
    39)     5.17463  -0.18958   0.57582      5.17463  -0.18958   0.57582      79   5.17463  -0.18958   0.57582
    40)     5.60314  -3.55714  -3.07614      5.60314  -3.55714  -3.07614      83   5.60314  -3.55714  -3.07614
    41)     3.17212   1.51924   3.10905      3.17212   1.51924   3.10905      87   3.17212   1.51924   3.10905
    42)     4.31954   5.46340   0.30001      4.31954   5.46340   0.30001      91   4.31954   5.46340   0.30001
    43)     3.05153  -1.23206  -0.45826      3.05153  -1.23206  -0.45826      35   3.05153  -1.23206  -0.45826
    44)     2.50021  -2.18609  -1.34017      2.50021  -2.18609  -1.34017      36   2.50021  -2.18609  -1.34017
    45)     4.45695  -1.08692  -0.39208      4.45695  -1.08692  -0.39208      37   4.45695  -1.08692  -0.39208
    46)     3.33675  -2.94179  -2.16143      3.33675  -2.94179  -2.16143      38   3.33675  -2.94179  -2.16143
    47)     5.25194  -1.85466  -1.24741      5.25194  -1.85466  -1.24741      39   5.25194  -1.85466  -1.24741
    48)     4.72091  -2.77708  -2.14898      4.72091  -2.77708  -2.14898      40   4.72091  -2.77708  -2.14898
    49)     1.54297  -0.93439   2.16215      1.54297  -0.93439   2.16215      43   1.54297  -0.93439   2.16215
    50)     0.56864  -0.28649   2.96500      0.56864  -0.28649   2.96500      44   0.56864  -0.28649   2.96500
    51)     2.08171  -2.17222   2.60670      2.08171  -2.17222   2.60670      45   2.08171  -2.17222   2.60670
    52)     0.15074  -0.87639   4.15850      0.15074  -0.87639   4.15850      46   0.15074  -0.87639   4.15850
    53)     1.61165  -2.71458   3.80811      1.61165  -2.71458   3.80811      47   1.61165  -2.71458   3.80811
    54)     0.64380  -2.10038   4.59852      0.64380  -2.10038   4.59852      48   0.64380  -2.10038   4.59852
    55)     2.69784   1.45354   0.56138      2.69784   1.45354   0.56138      51   2.69784   1.45354   0.56138
    56)     3.14673   2.11620   1.72885      3.14673   2.11620   1.72885      52   3.14673   2.11620   1.72885
    57)     2.87541   2.07460  -0.70442      2.87541   2.07460  -0.70442      53   2.87541   2.07460  -0.70442
    58)     3.67191   3.40608   1.60660      3.67191   3.40608   1.60660      54   3.67191   3.40608   1.60660
    59)     3.41411   3.36213  -0.75990      3.41411   3.36213  -0.75990      55   3.41411   3.36213  -0.75990
    60)     3.79717   4.06084   0.38305      3.79717   4.06084   0.38305      56   3.79717   4.06084   0.38305
    61)    -0.06605   1.03214   2.63333     -0.06605   1.03214   2.63333      59  -0.06605   1.03214   2.63333

 Total nr. of (C)SFOs (summation over all irreps) :  1324

 Specify PRINT SFO in the input file to get a full list

 Nr. of SFOs for ir.rep.           A :  1324



 ================================
 (Slater-type)  F U N C T I O N S  ***  (Basis and Fit)  ***
 ================================
  

 Atom Type    1  (Pd)
 ==============

 Valence Basis Sets:  26
 -----------------------
   1 S  306.000000
   1 S   76.400000
   1 S   45.900000
   2 S   53.800000
   2 S   19.550000
   3 S   10.150000
   3 S    6.650000
   4 S    6.150000
   4 S    3.900000
   5 S    2.500000
   5 S    1.450000
   5 S    0.850000
   2 P   29.100000
   2 P   18.750000
   3 P   11.250000
   3 P    8.100000
   4 P    5.950000
   4 P    3.950000
   4 P    2.700000
   3 D   17.550000
   3 D   10.450000
   3 D    6.900000
   4 D    4.250000
   4 D    2.200000
   4 D    1.100000
   5 P    1.450000

 Charge Fitting Sets (for the computation of the Coulomb Potential):  58
 -----------------------------------------------------------------------
   1 S  612.000000
   1 S  446.101000
   1 S  325.174000
   1 S  237.027000
   1 S  172.774000
   1 S  125.939000
   1 S   91.800000
   1 S   53.670000
   2 S   58.190000
   2 S   38.430000
   3 S   37.300000
   3 S   26.280000
   4 S   24.500000
   4 S   18.000000
   5 S   16.470000
   5 S   12.460000
   6 S   11.300000
   6 S    8.740000
   7 S    7.890000
   7 S    6.210000
   8 S    5.590000
   8 S    4.470000
   8 S    3.570000
   9 S    3.210000
   9 S    2.600000
   9 S    2.100000
   9 S    1.700000
   2 P   64.650000
   3 P   49.410000
   4 P   37.530000
   5 P   28.620000
   6 P   21.980000
   6 P   14.500000
   7 P   11.220000
   7 P    7.620000
   8 P    5.940000
   8 P    4.130000
   9 P    3.240000
   9 P    2.300000
   3 D   56.350000
   4 D   37.260000
   5 D   25.120000
   6 D   17.230000
   6 D   10.190000
   7 D    7.110000
   7 D    4.360000
   8 D    3.090000
   8 D    1.950000
   4 F   47.900000
   5 F   28.270000
   6 F   17.190000
   6 F    9.040000
   7 F    5.640000
   7 F    3.100000
   5 G   20.900000
   6 G    9.980000
   7 G    4.980000
   7 G    2.200000

 Atom Type    2  (H)
 ==============

 Valence Basis Sets:   4
 -----------------------
   1 S    0.690000
   1 S    0.920000
   1 S    1.580000
   2 P    1.250000

 Charge Fitting Sets (for the computation of the Coulomb Potential):  11
 -----------------------------------------------------------------------
   1 S    3.160000
   1 S    2.090000
   1 S    1.380000
   2 S    1.500000
   2 P    4.000000
   2 P    2.650000
   2 P    1.750000
   3 D    4.000000
   3 D    2.500000
   4 F    3.000000
   5 G    4.000000

 Atom Type    3  (C)
 ==============

 Valence Basis Sets:   9
 -----------------------
   1 S    7.680000
   1 S    5.000000
   2 S    1.280000
   2 S    2.100000
   2 S    4.600000
   2 P    0.820000
   2 P    1.480000
   2 P    2.940000
   3 D    2.200000

 Charge Fitting Sets (for the computation of the Coulomb Potential):  22
 -----------------------------------------------------------------------
   1 S   15.360000
   2 S   17.530000
   2 S   12.070000
   2 S    8.310000
   2 S    5.730000
   3 S    5.780000
   3 S    4.220000
   3 S    3.080000
   3 S    2.250000
   3 S    1.640000
   2 P    9.880000
   2 P    5.800000
   3 P    5.050000
   3 P    3.230000
   3 P    2.060000
   3 D    7.200000
   3 D    4.400000
   3 D    2.690000
   3 D    1.640000
   4 F    5.400000
   4 F    3.550000
   5 G    4.500000

 Atom Type    4  (N)
 ==============

 Valence Basis Sets:   9
 -----------------------
   1 S    8.740000
   1 S    5.900000
   2 S    5.150000
   2 S    2.500000
   2 S    1.500000
   2 P    3.680000
   2 P    1.880000
   2 P    1.000000
   3 D    2.200000

 Charge Fitting Sets (for the computation of the Coulomb Potential):  22
 -----------------------------------------------------------------------
   1 S   17.480000
   2 S   20.150000
   2 S   13.990000
   2 S    9.710000
   2 S    6.740000
   3 S    6.860000
   3 S    5.040000
   3 S    3.700000
   3 S    2.720000
   3 S    2.000000
   2 P   11.320000
   2 P    6.730000
   3 P    5.920000
   3 P    3.820000
   3 P    2.460000
   3 D    8.100000
   3 D    5.080000
   3 D    3.190000
   3 D    2.000000
   4 F    5.800000
   4 F    3.600000
   5 G    4.500000

 Atom Type    5  (S)
 ==============

 Valence Basis Sets:  13
 -----------------------
   1 S   19.400000
   1 S   14.350000
   2 S    5.900000
   2 S    4.250000
   2 P    8.050000
   2 P    4.550000
   3 S    3.450000
   3 S    2.250000
   3 S    1.500000
   3 P    2.650000
   3 P    1.600000
   3 P    1.000000
   3 D    2.100000

 Charge Fitting Sets (for the computation of the Coulomb Potential):  30
 -----------------------------------------------------------------------
   1 S   38.800000
   1 S   23.350000
   2 S   26.020000
   2 S   17.570000
   3 S   17.420000
   3 S   12.500000
   3 S    8.980000
   4 S    8.520000
   4 S    6.360000
   4 S    4.750000
   5 S    4.420000
   5 S    3.390000
   5 S    2.600000
   5 S    2.000000
   2 P   27.450000
   3 P   20.250000
   4 P   14.920000
   4 P    8.780000
   5 P    6.520000
   5 P    4.040000
   5 P    2.500000
   3 D   20.900000
   4 D   14.560000
   4 D    8.130000
   5 D    5.740000
   5 D    3.390000
   5 D    2.000000
   4 F    5.000000
   4 F    3.000000
   5 G    3.620000

 Atom Type    6  (O)
 ==============

 Valence Basis Sets:   9
 -----------------------
   1 S    9.800000
   1 S    6.800000
   2 S    7.580000
   2 S    2.880000
   2 S    1.720000
   2 P    4.080000
   2 P    2.080000
   2 P    1.120000
   3 D    2.000000

 Charge Fitting Sets (for the computation of the Coulomb Potential):  22
 -----------------------------------------------------------------------
   1 S   19.600000
   2 S   22.600000
   2 S   15.680000
   2 S   10.890000
   2 S    7.560000
   3 S    7.690000
   3 S    5.650000
   3 S    4.150000
   3 S    3.050000
   3 S    2.240000
   2 P   12.860000
   2 P    7.680000
   3 P    6.780000
   3 P    4.390000
   3 P    2.840000
   3 D    8.800000
   3 D    5.580000
   3 D    3.530000
   3 D    2.240000
   4 F    6.200000
   4 F    3.700000
   5 G    4.500000

 Atom Type    7  (Cl)
 ==============

 Valence Basis Sets:  13
 -----------------------
   1 S   20.300000
   1 S   15.250000
   2 S    6.250000
   2 S    4.450000
   2 P    8.850000
   2 P    5.050000
   3 S    3.450000
   3 S    2.300000
   3 S    1.600000
   3 P    3.350000
   3 P    2.050000
   3 P    1.200000
   3 D    2.000000

 Charge Fitting Sets (for the computation of the Coulomb Potential):  30
 -----------------------------------------------------------------------
   1 S   40.600000
   1 S   24.830000
   2 S   28.080000
   2 S   19.200000
   3 S   19.250000
   3 S   13.970000
   3 S   10.130000
   4 S    9.710000
   4 S    7.320000
   4 S    5.510000
   5 S    5.170000
   5 S    4.000000
   5 S    3.100000
   5 S    2.400000
   2 P   29.150000
   3 P   21.740000
   4 P   16.160000
   4 P    9.600000
   5 P    7.180000
   5 P    4.480000
   5 P    2.800000
   3 D   21.950000
   4 D   15.750000
   4 D    9.040000
   5 D    6.550000
   5 D    3.960000
   5 D    2.400000
   4 F    5.000000
   4 F    3.000000
   5 G    3.500000

 Atom Type    8  (F)
 ==============

 Valence Basis Sets:   9
 -----------------------
   1 S   10.880000
   1 S    7.700000
   2 S    3.240000
   2 S    1.940000
   2 S    0.740000
   2 P    4.540000
   2 P    2.300000
   2 P    1.240000
   3 D    2.000000

 Charge Fitting Sets (for the computation of the Coulomb Potential):  23
 -----------------------------------------------------------------------
   1 S   21.760000
   2 S   24.390000
   2 S   16.560000
   2 S   11.240000
   2 S    7.630000
   3 S    7.600000
   3 S    5.480000
   3 S    3.950000
   3 S    2.850000
   3 S    2.050000
   3 S    1.480000
   2 P   14.400000
   2 P    7.530000
   3 P    5.900000
   3 P    3.420000
   3 P    1.980000
   3 D    9.700000
   3 D    6.160000
   3 D    3.910000
   3 D    2.480000
   4 F    6.500000
   4 F    3.750000
   5 G    4.500000

 Atom Type    9  (H)
 ==============

 Valence Basis Sets:   4
 -----------------------
   1 S    0.690000
   1 S    0.920000
   1 S    1.580000
   2 P    1.250000

 Charge Fitting Sets (for the computation of the Coulomb Potential):  11
 -----------------------------------------------------------------------
   1 S    3.160000
   1 S    2.090000
   1 S    1.380000
   2 S    1.500000
   2 P    4.000000
   2 P    2.650000
   2 P    1.750000
   3 D    4.000000
   3 D    2.500000
   4 F    3.000000
   5 G    4.000000

 Atom Type   10  (P)
 ==============

 Valence Basis Sets:  13
 -----------------------
   1 S   18.000000
   1 S   13.350000
   2 S    5.600000
   2 S    4.050000
   2 P    7.450000
   2 P    4.100000
   3 S    2.700000
   3 S    1.850000
   3 S    1.300000
   3 P    2.300000
   3 P    1.350000
   3 P    0.850000
   3 D    1.900000

 Charge Fitting Sets (for the computation of the Coulomb Potential):  30
 -----------------------------------------------------------------------
   1 S   36.000000
   1 S   21.450000
   2 S   23.670000
   2 S   15.860000
   3 S   15.600000
   3 S   11.130000
   3 S    7.940000
   4 S    7.490000
   4 S    5.560000
   4 S    4.130000
   5 S    3.810000
   5 S    2.910000
   5 S    2.230000
   5 S    1.700000
   2 P   25.450000
   3 P   18.490000
   4 P   13.440000
   4 P    7.810000
   5 P    5.730000
   5 P    3.510000
   5 P    2.150000
   3 D   19.350000
   4 D   13.230000
   4 D    7.250000
   5 D    5.040000
   5 D    2.930000
   5 D    1.700000
   4 F    5.000000
   4 F    3.000000
   5 G    3.750000

 Atom Type   11  (C)
 ==============

 Valence Basis Sets:   9
 -----------------------
   1 S    7.680000
   1 S    5.000000
   2 S    1.280000
   2 S    2.100000
   2 S    4.600000
   2 P    0.820000
   2 P    1.480000
   2 P    2.940000
   3 D    2.200000

 Charge Fitting Sets (for the computation of the Coulomb Potential):  22
 -----------------------------------------------------------------------
   1 S   15.360000
   2 S   17.530000
   2 S   12.070000
   2 S    8.310000
   2 S    5.730000
   3 S    5.780000
   3 S    4.220000
   3 S    3.080000
   3 S    2.250000
   3 S    1.640000
   2 P    9.880000
   2 P    5.800000
   3 P    5.050000
   3 P    3.230000
   3 P    2.060000
   3 D    7.200000
   3 D    4.400000
   3 D    2.690000
   3 D    1.640000
   4 F    5.400000
   4 F    3.550000
   5 G    4.500000


 BAS: List of all Elementary Cartesian Basis Functions
 =====================================================

 The numbering in the list below (to the right of the function characteristics) is referred
 to in print-outs of MO eigenvectors and Mulliken populations in the BAS representation
 (as contrasted to the SFO representation).

 Notes:
 1. The functions are characterized by a polynomial prefactor (powers of x,y,z and r) and
    an exponential decay factor alpha.
 2. Since the basis sets are specific for an atom TYPE, the individual functions occur on
    all atoms of that type.
 3. The word 'Core' in the left margin signals that it is a Core Function (CF) : not a
    degree of freedom in the valence set, but only used to ensure orthogonalization of
    the other valence basis functions on the frozen Core Orbitals.


 (power of) X  Y  Z  R     Alpha  on Atom
            ==========     =====     ==========

 Pd                                   1
                                  ---------------------------------------------------------------------------
            0  0  0  0   306.000      1
            0  0  0  0    76.400      2
            0  0  0  0    45.900      3
            0  0  0  1    53.800      4
            0  0  0  1    19.550      5
            0  0  0  2    10.150      6
            0  0  0  2     6.650      7
            0  0  0  3     6.150      8
            0  0  0  3     3.900      9
            0  0  0  4     2.500     10
            0  0  0  4     1.450     11
            0  0  0  4     0.850     12
            1  0  0  0    29.100     13
            0  1  0  0    29.100     14
            0  0  1  0    29.100     15
            1  0  0  0    18.750     16
            0  1  0  0    18.750     17
            0  0  1  0    18.750     18
            1  0  0  1    11.250     19
            0  1  0  1    11.250     20
            0  0  1  1    11.250     21
            1  0  0  1     8.100     22
            0  1  0  1     8.100     23
            0  0  1  1     8.100     24
            1  0  0  2     5.950     25
            0  1  0  2     5.950     26
            0  0  1  2     5.950     27
            1  0  0  2     3.950     28
            0  1  0  2     3.950     29
            0  0  1  2     3.950     30
            1  0  0  2     2.700     31
            0  1  0  2     2.700     32
            0  0  1  2     2.700     33
            2  0  0  0    17.550     34
            1  1  0  0    17.550     35
            1  0  1  0    17.550     36
            0  2  0  0    17.550     37
            0  1  1  0    17.550     38
            0  0  2  0    17.550     39
            2  0  0  0    10.450     40
            1  1  0  0    10.450     41
            1  0  1  0    10.450     42
            0  2  0  0    10.450     43
            0  1  1  0    10.450     44
            0  0  2  0    10.450     45
            2  0  0  0     6.900     46
            1  1  0  0     6.900     47
            1  0  1  0     6.900     48
            0  2  0  0     6.900     49
            0  1  1  0     6.900     50
            0  0  2  0     6.900     51
            2  0  0  1     4.250     52
            1  1  0  1     4.250     53
            1  0  1  1     4.250     54
            0  2  0  1     4.250     55
            0  1  1  1     4.250     56
            0  0  2  1     4.250     57
            2  0  0  1     2.200     58
            1  1  0  1     2.200     59
            1  0  1  1     2.200     60
            0  2  0  1     2.200     61
            0  1  1  1     2.200     62
            0  0  2  1     2.200     63
            2  0  0  1     1.100     64
            1  1  0  1     1.100     65
            1  0  1  1     1.100     66
            0  2  0  1     1.100     67
            0  1  1  1     1.100     68
            0  0  2  1     1.100     69
            1  0  0  3     1.450     70
            0  1  0  3     1.450     71
            0  0  1  3     1.450     72

 H                                    2    3    4    5    6    7    8    9
                                  ---------------------------------------------------------------------------
            0  0  0  0     0.690     73   79   85   91   97  103  109  115
            0  0  0  0     0.920     74   80   86   92   98  104  110  116
            0  0  0  0     1.580     75   81   87   93   99  105  111  117
            1  0  0  0     1.250     76   82   88   94  100  106  112  118
            0  1  0  0     1.250     77   83   89   95  101  107  113  119
            0  0  1  0     1.250     78   84   90   96  102  108  114  120

 C                                   10   11   12   13   14   15   16   17   18   19   20   21   22   23
                                  ---------------------------------------------------------------------------
            0  0  0  0     7.680    121  141  161  181  201  221  241  261  281  301  321  341  361  381
            0  0  0  0     5.000    122  142  162  182  202  222  242  262  282  302  322  342  362  382
            0  0  0  1     1.280    123  143  163  183  203  223  243  263  283  303  323  343  363  383
            0  0  0  1     2.100    124  144  164  184  204  224  244  264  284  304  324  344  364  384
            0  0  0  1     4.600    125  145  165  185  205  225  245  265  285  305  325  345  365  385
            1  0  0  0     0.820    126  146  166  186  206  226  246  266  286  306  326  346  366  386
            0  1  0  0     0.820    127  147  167  187  207  227  247  267  287  307  327  347  367  387
            0  0  1  0     0.820    128  148  168  188  208  228  248  268  288  308  328  348  368  388
            1  0  0  0     1.480    129  149  169  189  209  229  249  269  289  309  329  349  369  389
            0  1  0  0     1.480    130  150  170  190  210  230  250  270  290  310  330  350  370  390
            0  0  1  0     1.480    131  151  171  191  211  231  251  271  291  311  331  351  371  391
            1  0  0  0     2.940    132  152  172  192  212  232  252  272  292  312  332  352  372  392
            0  1  0  0     2.940    133  153  173  193  213  233  253  273  293  313  333  353  373  393
            0  0  1  0     2.940    134  154  174  194  214  234  254  274  294  314  334  354  374  394
            2  0  0  0     2.200    135  155  175  195  215  235  255  275  295  315  335  355  375  395
            1  1  0  0     2.200    136  156  176  196  216  236  256  276  296  316  336  356  376  396
            1  0  1  0     2.200    137  157  177  197  217  237  257  277  297  317  337  357  377  397
            0  2  0  0     2.200    138  158  178  198  218  238  258  278  298  318  338  358  378  398
            0  1  1  0     2.200    139  159  179  199  219  239  259  279  299  319  339  359  379  399
            0  0  2  0     2.200    140  160  180  200  220  240  260  280  300  320  340  360  380  400

 N                                   24
                                  ---------------------------------------------------------------------------
            0  0  0  0     8.740    401
            0  0  0  0     5.900    402
            0  0  0  1     5.150    403
            0  0  0  1     2.500    404
            0  0  0  1     1.500    405
            1  0  0  0     3.680    406
            0  1  0  0     3.680    407
            0  0  1  0     3.680    408
            1  0  0  0     1.880    409
            0  1  0  0     1.880    410
            0  0  1  0     1.880    411
            1  0  0  0     1.000    412
            0  1  0  0     1.000    413
            0  0  1  0     1.000    414
            2  0  0  0     2.200    415
            1  1  0  0     2.200    416
            1  0  1  0     2.200    417
            0  2  0  0     2.200    418
            0  1  1  0     2.200    419
            0  0  2  0     2.200    420

 S                                   25
                                  ---------------------------------------------------------------------------
            0  0  0  0    19.400    421
            0  0  0  0    14.350    422
            0  0  0  1     5.900    423
            0  0  0  1     4.250    424
            1  0  0  0     8.050    425
            0  1  0  0     8.050    426
            0  0  1  0     8.050    427
            1  0  0  0     4.550    428
            0  1  0  0     4.550    429
            0  0  1  0     4.550    430
            0  0  0  2     3.450    431
            0  0  0  2     2.250    432
            0  0  0  2     1.500    433
            1  0  0  1     2.650    434
            0  1  0  1     2.650    435
            0  0  1  1     2.650    436
            1  0  0  1     1.600    437
            0  1  0  1     1.600    438
            0  0  1  1     1.600    439
            1  0  0  1     1.000    440
            0  1  0  1     1.000    441
            0  0  1  1     1.000    442
            2  0  0  0     2.100    443
            1  1  0  0     2.100    444
            1  0  1  0     2.100    445
            0  2  0  0     2.100    446
            0  1  1  0     2.100    447
            0  0  2  0     2.100    448

 O                                   26   27   28
                                  ---------------------------------------------------------------------------
            0  0  0  0     9.800    449  469  489
            0  0  0  0     6.800    450  470  490
            0  0  0  1     7.580    451  471  491
            0  0  0  1     2.880    452  472  492
            0  0  0  1     1.720    453  473  493
            1  0  0  0     4.080    454  474  494
            0  1  0  0     4.080    455  475  495
            0  0  1  0     4.080    456  476  496
            1  0  0  0     2.080    457  477  497
            0  1  0  0     2.080    458  478  498
            0  0  1  0     2.080    459  479  499
            1  0  0  0     1.120    460  480  500
            0  1  0  0     1.120    461  481  501
            0  0  1  0     1.120    462  482  502
            2  0  0  0     2.000    463  483  503
            1  1  0  0     2.000    464  484  504
            1  0  1  0     2.000    465  485  505
            0  2  0  0     2.000    466  486  506
            0  1  1  0     2.000    467  487  507
            0  0  2  0     2.000    468  488  508

 Cl                                  29
                                  ---------------------------------------------------------------------------
            0  0  0  0    20.300    509
            0  0  0  0    15.250    510
            0  0  0  1     6.250    511
            0  0  0  1     4.450    512
            1  0  0  0     8.850    513
            0  1  0  0     8.850    514
            0  0  1  0     8.850    515
            1  0  0  0     5.050    516
            0  1  0  0     5.050    517
            0  0  1  0     5.050    518
            0  0  0  2     3.450    519
            0  0  0  2     2.300    520
            0  0  0  2     1.600    521
            1  0  0  1     3.350    522
            0  1  0  1     3.350    523
            0  0  1  1     3.350    524
            1  0  0  1     2.050    525
            0  1  0  1     2.050    526
            0  0  1  1     2.050    527
            1  0  0  1     1.200    528
            0  1  0  1     1.200    529
            0  0  1  1     1.200    530
            2  0  0  0     2.000    531
            1  1  0  0     2.000    532
            1  0  1  0     2.000    533
            0  2  0  0     2.000    534
            0  1  1  0     2.000    535
            0  0  2  0     2.000    536

 F                                   30   31   32   33
                                  ---------------------------------------------------------------------------
            0  0  0  0    10.880    537  557  577  597
            0  0  0  0     7.700    538  558  578  598
            0  0  0  1     3.240    539  559  579  599
            0  0  0  1     1.940    540  560  580  600
            0  0  0  1     0.740    541  561  581  601
            1  0  0  0     4.540    542  562  582  602
            0  1  0  0     4.540    543  563  583  603
            0  0  1  0     4.540    544  564  584  604
            1  0  0  0     2.300    545  565  585  605
            0  1  0  0     2.300    546  566  586  606
            0  0  1  0     2.300    547  567  587  607
            1  0  0  0     1.240    548  568  588  608
            0  1  0  0     1.240    549  569  589  609
            0  0  1  0     1.240    550  570  590  610
            2  0  0  0     2.000    551  571  591  611
            1  1  0  0     2.000    552  572  592  612
            1  0  1  0     2.000    553  573  593  613
            0  2  0  0     2.000    554  574  594  614
            0  1  1  0     2.000    555  575  595  615
            0  0  2  0     2.000    556  576  596  616

 H                                   34   35   36   37   38   39   40   41   42   43   44   45   46   47   48
                                     49   50   51   52   53   54   55   56   57   58   59   60   61   62   63
                                     64   65   66
                                  ---------------------------------------------------------------------------
            0  0  0  0     0.690    617  623  629  635  641  647  653  659  665  671  677  683  689  695  701
                                    707  713  719  725  731  737  743  749  755  761  767  773  779  785  791
                                    797  803  809
            0  0  0  0     0.920    618  624  630  636  642  648  654  660  666  672  678  684  690  696  702
                                    708  714  720  726  732  738  744  750  756  762  768  774  780  786  792
                                    798  804  810
            0  0  0  0     1.580    619  625  631  637  643  649  655  661  667  673  679  685  691  697  703
                                    709  715  721  727  733  739  745  751  757  763  769  775  781  787  793
                                    799  805  811
            1  0  0  0     1.250    620  626  632  638  644  650  656  662  668  674  680  686  692  698  704
                                    710  716  722  728  734  740  746  752  758  764  770  776  782  788  794
                                    800  806  812
            0  1  0  0     1.250    621  627  633  639  645  651  657  663  669  675  681  687  693  699  705
                                    711  717  723  729  735  741  747  753  759  765  771  777  783  789  795
                                    801  807  813
            0  0  1  0     1.250    622  628  634  640  646  652  658  664  670  676  682  688  694  700  706
                                    712  718  724  730  736  742  748  754  760  766  772  778  784  790  796
                                    802  808  814

 P                                   67
                                  ---------------------------------------------------------------------------
            0  0  0  0    18.000    815
            0  0  0  0    13.350    816
            0  0  0  1     5.600    817
            0  0  0  1     4.050    818
            1  0  0  0     7.450    819
            0  1  0  0     7.450    820
            0  0  1  0     7.450    821
            1  0  0  0     4.100    822
            0  1  0  0     4.100    823
            0  0  1  0     4.100    824
            0  0  0  2     2.700    825
            0  0  0  2     1.850    826
            0  0  0  2     1.300    827
            1  0  0  1     2.300    828
            0  1  0  1     2.300    829
            0  0  1  1     2.300    830
            1  0  0  1     1.350    831
            0  1  0  1     1.350    832
            0  0  1  1     1.350    833
            1  0  0  1     0.850    834
            0  1  0  1     0.850    835
            0  0  1  1     0.850    836
            2  0  0  0     1.900    837
            1  1  0  0     1.900    838
            1  0  1  0     1.900    839
            0  2  0  0     1.900    840
            0  1  1  0     1.900    841
            0  0  2  0     1.900    842

 C                                   68   69   70   71   72   73   74   75   76   77   78   79   80   81   82
                                     83   84   85   86   87   88   89   90   91   92   93   94
                                  ---------------------------------------------------------------------------
            0  0  0  0     7.680    843  863  883  903  923  943  963  983 1003 1023 1043 1063 1083 1103 1123
                                   1143 1163 1183 1203 1223 1243 1263 1283 1303 1323 1343 1363
            0  0  0  0     5.000    844  864  884  904  924  944  964  984 1004 1024 1044 1064 1084 1104 1124
                                   1144 1164 1184 1204 1224 1244 1264 1284 1304 1324 1344 1364
            0  0  0  1     1.280    845  865  885  905  925  945  965  985 1005 1025 1045 1065 1085 1105 1125
                                   1145 1165 1185 1205 1225 1245 1265 1285 1305 1325 1345 1365
            0  0  0  1     2.100    846  866  886  906  926  946  966  986 1006 1026 1046 1066 1086 1106 1126
                                   1146 1166 1186 1206 1226 1246 1266 1286 1306 1326 1346 1366
            0  0  0  1     4.600    847  867  887  907  927  947  967  987 1007 1027 1047 1067 1087 1107 1127
                                   1147 1167 1187 1207 1227 1247 1267 1287 1307 1327 1347 1367
            1  0  0  0     0.820    848  868  888  908  928  948  968  988 1008 1028 1048 1068 1088 1108 1128
                                   1148 1168 1188 1208 1228 1248 1268 1288 1308 1328 1348 1368
            0  1  0  0     0.820    849  869  889  909  929  949  969  989 1009 1029 1049 1069 1089 1109 1129
                                   1149 1169 1189 1209 1229 1249 1269 1289 1309 1329 1349 1369
            0  0  1  0     0.820    850  870  890  910  930  950  970  990 1010 1030 1050 1070 1090 1110 1130
                                   1150 1170 1190 1210 1230 1250 1270 1290 1310 1330 1350 1370
            1  0  0  0     1.480    851  871  891  911  931  951  971  991 1011 1031 1051 1071 1091 1111 1131
                                   1151 1171 1191 1211 1231 1251 1271 1291 1311 1331 1351 1371
            0  1  0  0     1.480    852  872  892  912  932  952  972  992 1012 1032 1052 1072 1092 1112 1132
                                   1152 1172 1192 1212 1232 1252 1272 1292 1312 1332 1352 1372
            0  0  1  0     1.480    853  873  893  913  933  953  973  993 1013 1033 1053 1073 1093 1113 1133
                                   1153 1173 1193 1213 1233 1253 1273 1293 1313 1333 1353 1373
            1  0  0  0     2.940    854  874  894  914  934  954  974  994 1014 1034 1054 1074 1094 1114 1134
                                   1154 1174 1194 1214 1234 1254 1274 1294 1314 1334 1354 1374
            0  1  0  0     2.940    855  875  895  915  935  955  975  995 1015 1035 1055 1075 1095 1115 1135
                                   1155 1175 1195 1215 1235 1255 1275 1295 1315 1335 1355 1375
            0  0  1  0     2.940    856  876  896  916  936  956  976  996 1016 1036 1056 1076 1096 1116 1136
                                   1156 1176 1196 1216 1236 1256 1276 1296 1316 1336 1356 1376
            2  0  0  0     2.200    857  877  897  917  937  957  977  997 1017 1037 1057 1077 1097 1117 1137
                                   1157 1177 1197 1217 1237 1257 1277 1297 1317 1337 1357 1377
            1  1  0  0     2.200    858  878  898  918  938  958  978  998 1018 1038 1058 1078 1098 1118 1138
                                   1158 1178 1198 1218 1238 1258 1278 1298 1318 1338 1358 1378
            1  0  1  0     2.200    859  879  899  919  939  959  979  999 1019 1039 1059 1079 1099 1119 1139
                                   1159 1179 1199 1219 1239 1259 1279 1299 1319 1339 1359 1379
            0  2  0  0     2.200    860  880  900  920  940  960  980 1000 1020 1040 1060 1080 1100 1120 1140
                                   1160 1180 1200 1220 1240 1260 1280 1300 1320 1340 1360 1380
            0  1  1  0     2.200    861  881  901  921  941  961  981 1001 1021 1041 1061 1081 1101 1121 1141
                                   1161 1181 1201 1221 1241 1261 1281 1301 1321 1341 1361 1381
            0  0  2  0     2.200    862  882  902  922  942  962  982 1002 1022 1042 1062 1082 1102 1122 1142
                                   1162 1182 1202 1222 1242 1262 1282 1302 1322 1342 1362 1382

 Total number of charge fitting functions (nprimf)      6725
 Total number of Cartesian basis functions (naos)       1382
 Total number of Cartesian core functions  (ncos)          0

1
 ***************************************************************************************************



                                              ***********************
                                              *  T E C H N I C A L  *
                                              ***********************
  



 =============================================================
 P A R A L L E L I Z A T I O N  and  V E C T O R I Z A T I O N
 =============================================================
  
 Nr of parallel processes:                               16
 Maximum vector length in NumInt loops:                 128



 =====================
 S C F   U P D A T E S
 =====================
  
 Max. nr. of cycles:                               300
 Convergence criterion:                              0.0000010000
   secondary criterion:                              0.0010000000

 Mix parameter (when DIIS does not apply):           0.2000000000
 Mixed ADIIS+SDIIS will be used                  
    Max number of expansion vectors:                10
    Pure ADIIS when Max([F,P]) is above              0.1000000000
    Pure SDIIS when Max([F,P]) is below              0.0010000000
 Automatic ElectronSmearing (in case of problematic SCF convergence) disabled



 =================
 P R E C I S I O N  ***  (General: NumInt, NeglectFunctionTails, ...)  ***
 =================
  

 NumInt:           Target precision:                 8.0000000000
 -------           Initial precision:                8.0000000000
                   Min. precision (optimization):    8.0000000000

 Neglect Functions:          Basis functions:        0.1000000000E-09
 ------------------          Fit functions:          0.1000000000E-09



 ===========================
 L I N E A R   S C A L I N G
 ===========================
  

 Cut-off radii density fit:                        0.1000000000E-11
[...]
     450       14.7713         0.000       
     449       14.7452         0.000       
     448       14.5813         0.000       
     447       14.5053         0.000       
     446       14.4022         0.000       
     445       14.3692         0.000       
     444       14.2714         0.000       
     443       14.2303         0.000       
     442       14.1022         0.000       
     441       13.9870         0.000       
     440       13.9647         0.000       
     439       13.9184         0.000       
     438       13.7612         0.000       
     437       13.7493         0.000       
     436       13.6297         0.000       
     435       13.5785         0.000       
     434       13.5341         0.000       
     433       13.3806         0.000       
     432       13.3198         0.000       
     431       13.2383         0.000       
     430       13.1437         0.000       
     429       13.0948         0.000       
     428       13.0353         0.000       
     427       12.9198         0.000       
     426       12.7981         0.000       
     425       12.7172         0.000       
     424       12.6764         0.000       
     423       12.6341         0.000       
     422       12.5732         0.000       
     421       12.5164         0.000       
     420       12.4856         0.000       
     419       12.4735         0.000       
     418       12.3965         0.000       
     417       12.3099         0.000       
     416       12.2546         0.000       
     415       12.2242         0.000       
     414       12.1822         0.000       
     413       12.0474         0.000       
     412       12.0157         0.000       
     411       11.9768         0.000       
     410       11.9023         0.000       
     409       11.8693         0.000       
     408       11.8046         0.000       
     407       11.7361         0.000       
     406       11.7009         0.000       
     405       11.6223         0.000       
     404       11.5675         0.000       
     403       11.5264         0.000       
     402       11.4471         0.000       
     401       11.3945         0.000       
     400       11.3486         0.000       
     399       11.3124         0.000       
     398       11.2086         0.000       
     397       11.1496         0.000       
     396       11.1189         0.000       
     395       11.0951         0.000       
     394       10.9629         0.000       
     393       10.9000         0.000       
     392       10.8455         0.000       
     391       10.7642         0.000       
     390       10.7500         0.000       
     389       10.6542         0.000       
     388       10.5276         0.000       
     387       10.5174         0.000       
     386       10.4553         0.000       
     385       10.4290         0.000       
     384       10.3512         0.000       
     383       10.2918         0.000       
     382       10.2674         0.000       
     381       10.2312         0.000       
     380       10.1170         0.000       
     379       10.0762         0.000       
     378        9.9939         0.000       
     377        9.9414         0.000       
     376        9.8855         0.000       
     375        9.8640         0.000       
     374        9.7988         0.000       
     373        9.7457         0.000       
     372        9.6494         0.000       
     371        9.6064         0.000       
     370        9.4493         0.000       
     369        9.4290         0.000       
     368        9.3591         0.000       
     367        9.2852         0.000       
     366        9.2308         0.000       
     365        9.1868         0.000       
     364        9.1273         0.000       
     363        9.1029         0.000       
     362        9.0025         0.000       
     361        8.9602         0.000       
     360        8.8829         0.000       
     359        8.8363         0.000       
     358        8.7643         0.000       
     357        8.6727         0.000       
     356        8.6515         0.000       
     355        8.5894         0.000       
     354        8.5044         0.000       
     353        8.4886         0.000       
     352        8.3579         0.000       
     351        8.2783         0.000       
     350        8.2005         0.000       
     349        8.1692         0.000       
     348        8.0326         0.000       
     347        8.0159         0.000       
     346        7.9558         0.000       
     345        7.8401         0.000       
     344        7.7761         0.000       
     343        7.7046         0.000       
     342        7.6543         0.000       
     341        7.5593         0.000       
     340        7.4662         0.000       
     339        7.3998         0.000       
     338        7.3873         0.000       
     337        7.2961         0.000       
     336        7.2172         0.000       
     335        7.1737         0.000       
     334        7.1394         0.000       
     333        7.1041         0.000       
     332        6.9404         0.000       
     331        6.9179         0.000       
     330        6.8528         0.000       
     329        6.7424         0.000       
     328        6.7289         0.000       
     327        6.6626         0.000       
     326        6.5848         0.000       
     325        6.5608         0.000       
     324        6.4707         0.000       
     323        6.3963         0.000       
     322        6.3620         0.000       
     321        6.3166         0.000       
     320        6.2367         0.000       
     319        6.1466         0.000       
     318        6.0316         0.000       
     317        5.9155         0.000       
     316        5.8796         0.000       
     315        5.7909         0.000       
     314        5.7506         0.000       
     313        5.6157         0.000       
     312        5.5050         0.000       
     311        5.4774         0.000       
     310        5.4336         0.000       
     309        5.3440         0.000       
     308        5.2548         0.000       
     307        5.1793         0.000       
     306        5.1360         0.000       
     305        5.1018         0.000       
     304        5.0782         0.000       
     303        4.9978         0.000       
     302        4.9876         0.000       
     301        4.8928         0.000       
     300        4.8236         0.000       
     299        4.6588         0.000       
     298        4.6010         0.000       
     297        4.5289         0.000       
     296        4.4392         0.000       
     295        4.4006         0.000       
     294        4.3291         0.000       
     293        4.2798         0.000       
     292        4.2474         0.000       
     291        4.1751         0.000       
     290        4.1270         0.000       
     289        4.0372         0.000       
     288        3.9394         0.000       
     287        3.8726         0.000       
     286        3.7678         0.000       
     285        3.7550         0.000       
     284        3.7213         0.000       
     283        3.6556         0.000       
     282        3.6121         0.000       
     281        3.5689         0.000       
     280        3.4170         0.000       
     279        3.3047         0.000       
     278        3.2630         0.000       
     277        3.2041         0.000       
     276        3.0808         0.000       
     275        3.0195         0.000       
     274        2.9811         0.000       
     273        2.8782         0.000       
     272        2.8675         0.000       
     271        2.7670         0.000       
     270        2.7184         0.000       
     269        2.7062         0.000       
     268        2.6431         0.000       
     267        2.5971         0.000       
     266        2.4929         0.000       
     265        2.4555         0.000       
     264        2.3783         0.000       
     263        2.3167         0.000       
     262        2.2325         0.000       
     261        2.1892         0.000       
     260        2.1743         0.000       
     259        2.1173         0.000       
     258        1.9916         0.000       
     257        1.9413         0.000       
     256        1.8916         0.000       
     255        1.8239         0.000       
     254        1.7016         0.000       
     253        1.6213         0.000       
     252        1.5165         0.000       
     251        1.4886         0.000       
     250        1.3576         0.000       
     249        1.3020         0.000       
     248        1.2727         0.000       
     247        1.1307         0.000       
     246        1.0808         0.000       
     245        1.0003         0.000       
     244        0.8950         0.000       
     243        0.8288         0.000       
     242        0.7706         0.000       
     241        0.6976         0.000       
     240        0.6078         0.000       
     239        0.5205         0.000       
     238        0.4529         0.000       
     237        0.3026         0.000       
     236        0.2038         0.000       
     235        0.1528         0.000       
     234        0.0087         0.000       
     233       -0.1173         0.000       
     232       -0.4784         0.000       
     231       -0.6144         0.000       
     230       -0.6647         0.000       
     229       -0.8007         0.000       
     228       -1.0123         0.000       
     227       -1.2270         0.000       
     226       -1.3928         0.000       
     225       -1.6871         0.000 < LUMO
     224       -5.9455         2.000 < HOMO
     223       -6.2824         2.000       
     222       -6.6796         2.000       
     221       -6.6875         2.000       
     220       -7.0892         2.000       
     219       -7.1351         2.000       
     218       -7.2823         2.000       
     217       -7.3500         2.000       
     216       -7.3932         2.000       
     215       -7.4896         2.000       
     214       -7.5462         2.000       
     213       -7.7363         2.000       
     212       -7.8826         2.000       
     211       -8.0747         2.000       
     210       -8.1673         2.000       
     209       -8.4129         2.000       
     208       -8.5478         2.000       
     207       -8.5835         2.000       
     206       -8.7946         2.000       
     205       -9.0473         2.000       
     204       -9.2231         2.000       
     203       -9.2719         2.000       
     202       -9.3439         2.000       
     201       -9.4509         2.000       
     200       -9.5179         2.000       
     199       -9.5894         2.000       
     198       -9.6053         2.000       
     197       -9.8682         2.000       
     196       -9.9433         2.000       
     195      -10.0135         2.000       
     194      -10.1392         2.000       
     193      -10.1552         2.000       
     192      -10.2065         2.000       
     191      -10.2591         2.000       
     190      -10.3018         2.000       
     189      -10.5162         2.000       
     188      -10.6291         2.000       
     187      -10.6781         2.000       
     186      -10.7266         2.000       
     185      -10.8315         2.000       
     184      -10.9065         2.000       
     183      -11.0167         2.000       
     182      -11.2334         2.000       
     181      -11.2678         2.000       
     180      -11.3419         2.000       
     179      -11.3988         2.000       
     178      -11.4415         2.000       
     177      -11.4947         2.000       
     176      -11.5809         2.000       
     175      -11.6296         2.000       
     174      -11.6761         2.000       
     173      -11.7018         2.000       
     172      -11.7624         2.000       
     171      -11.8007         2.000       
     170      -11.8155         2.000       
     169      -11.8729         2.000       
     168      -11.9704         2.000       
     167      -11.9895         2.000       
     166      -12.0361         2.000       
     165      -12.0962         2.000       
     164      -12.1148         2.000       
     163      -12.1746         2.000       
     162      -12.2572         2.000       
     161      -12.2899         2.000       
     160      -12.3973         2.000       
     159      -12.4918         2.000       
     158      -12.5387         2.000       
     157      -12.5767         2.000       
     156      -12.6145         2.000       
     155      -12.6645         2.000       
     154      -12.8059         2.000       
     153      -12.9030         2.000       
     152      -12.9187         2.000       
     151      -13.0001         2.000       
     150      -13.0435         2.000       
     149      -13.1549         2.000       
     148      -13.2564         2.000       
     147      -13.2842         2.000       
     146      -13.3635         2.000       
     145      -13.5280         2.000       
     144      -13.6177         2.000       
     143      -13.6966         2.000       
     142      -13.9339         2.000       
     141      -14.0072         2.000       
     140      -14.1694         2.000       
     139      -14.2898         2.000       
     138      -14.4250         2.000       
     137      -14.4302         2.000       
     136      -14.4896         2.000       
     135      -14.7540         2.000       
     134      -14.8830         2.000       
     133      -15.0859         2.000       
     132      -15.5301         2.000       
     131      -15.9145         2.000       
     130      -15.9747         2.000       
     129      -16.0689         2.000       
     128      -16.4862         2.000       
     127      -16.5333         2.000       
     126      -16.6577         2.000       
     125      -16.7025         2.000       
     124      -16.7290         2.000       
     123      -16.8489         2.000       
     122      -16.8785         2.000       
     121      -17.1897         2.000       
     120      -17.9535         2.000       
     119      -18.4110         2.000       
     118      -18.4769         2.000       
     117      -19.2840         2.000       
     116      -19.4153         2.000       
     115      -19.5228         2.000       
     114      -19.6224         2.000       
     113      -19.6879         2.000       
     112      -19.7305         2.000       
     111      -19.8665         2.000       
     110      -20.0268         2.000       
     109      -20.1285         2.000       
     108      -20.3706         2.000       
     107      -20.6683         2.000       
     106      -20.7970         2.000       
     105      -21.1090         2.000       
     104      -21.3103         2.000       
     103      -22.2545         2.000       
     102      -22.3659         2.000       
     101      -22.3893         2.000       
     100      -22.5129         2.000       
      99      -22.6153         2.000       
      98      -22.7635         2.000       
      97      -22.9546         2.000       
      96      -24.0111         2.000       
      95      -24.2166         2.000       
      94      -24.4081         2.000       
      93      -24.7049         2.000       
      92      -24.8147         2.000       
      91      -25.0524         2.000       
      90      -25.9446         2.000       
      89      -27.6737         2.000       
      88      -30.1958         2.000       
      87      -30.6748         2.000       
      86      -34.5462         2.000       
      85      -34.7214         2.000       
      84      -34.9909         2.000       
      83      -35.2476         2.000       
      82      -57.9724         2.000       
      81      -58.7488         2.000       
      80      -58.9022         2.000       
      79      -93.9525         2.000       
      78     -130.2204         2.000       
      77     -130.2942         2.000       
      76     -130.3042         2.000       
      75     -165.4119         2.000       
      74     -165.4238         2.000       
      73     -165.4470         2.000       
      72     -182.0787         2.000       
      71     -197.1711         2.000       
      70     -197.1867         2.000       
      69     -197.4595         2.000       
      68     -222.9719         2.000       
      67     -260.8175         2.000       
      66     -278.2800         2.000       
      65     -278.3701         2.000       
      64     -278.3876         2.000       
      63     -278.4537         2.000       
      62     -278.4876         2.000       
      61     -278.4989         2.000       
      60     -278.5879         2.000       
      59     -278.6004         2.000       
      58     -278.6271         2.000       
      57     -278.6641         2.000       
      56     -278.6744         2.000       
      55     -278.7052         2.000       
      54     -278.7270         2.000       
      53     -278.7840         2.000       
      52     -278.7855         2.000       
      51     -278.8346         2.000       
      50     -278.8444         2.000       
      49     -278.8522         2.000       
      48     -279.0367         2.000       
      47     -279.0415         2.000       
      46     -279.1465         2.000       
      45     -279.2243         2.000       
      44     -279.2695         2.000       
      43     -279.3235         2.000       
      42     -279.3587         2.000       
      41     -279.4043         2.000       
      40     -279.4300         2.000       
      39     -279.4422         2.000       
      38     -279.4579         2.000       
      37     -279.4652         2.000       
      36     -279.4853         2.000       
      35     -279.5046         2.000       
      34     -279.5100         2.000       
      33     -279.8016         2.000       
      32     -279.9560         2.000       
      31     -280.0639         2.000       
      30     -280.3717         2.000       
      29     -280.9489         2.000       
      28     -281.1288         2.000       
      27     -281.1464         2.000       
      26     -281.1826         2.000       
      25     -338.2273         2.000       
      24     -338.2742         2.000       
      23     -338.3288         2.000       
      22     -338.5103         2.000       
      21     -338.5136         2.000       
      20     -391.8272         2.000       
      19     -522.4169         2.000       
      18     -522.4384         2.000       
      17     -523.9822         2.000       
      16     -532.0292         2.000       
      15     -532.3632         2.000       
      14     -532.4414         2.000       
      13     -654.1137         2.000       
      12     -675.0016         2.000       
      11     -675.3187         2.000       
      10     -675.3660         2.000       
       9     -675.3903         2.000       
       8    -2108.1923         2.000       
       7    -2434.7636         2.000       
       6    -2777.0403         2.000       
       5    -3190.2220         2.000       
       4    -3190.3663         2.000       
       3    -3190.3904         2.000       
       2    -3561.2766         2.000       
       1   -24224.4154         2.000       

AMS application finished. Exiting.
NORMAL TERMINATION
     Total cpu time:    4271.62
  Total system time:      42.27
 Total elapsed time:    4330.06
NORMAL TERMINATION
