

 Parallel Execution: Process Information
 ==============================================================================
 Rank   Node Name                              NodeID   MyNodeRank  NodeMaster
    0   eu-g5-003-1                               0          0          0
    1   eu-g5-003-1                               1          0          1
    2   eu-g5-003-1                               0          1         -1
    3   eu-g5-003-1                               1          1         -1
    4   eu-g5-003-1                               0          2         -1
    5   eu-g5-003-1                               1          2         -1
    6   eu-g5-003-1                               0          3         -1
    7   eu-g5-003-1                               1          3         -1
    8   eu-g5-003-1                               2          0          2
    9   eu-g5-003-1                               3          0          3
   10   eu-g5-003-1                               2          1         -1
   11   eu-g5-003-1                               3          1         -1
   12   eu-g5-003-1                               2          2         -1
   13   eu-g5-003-1                               3          2         -1
   14   eu-g5-003-1                               2          3         -1
   15   eu-g5-003-1                               3          3         -1
 ==============================================================================


May use up to 30549MB of RAM as shared memory on node 0
May use up to 30759MB of RAM as shared memory on node 3
May use up to 30759MB of RAM as shared memory on node 1
May use up to 30759MB of RAM as shared memory on node 2

 *******************************************************************************
 *                                                                             *
 *  --------------------------------                                           *
 *   Amsterdam Modeling Suite (AMS)              2023.101                      *
 *  --------------------------------                                           *
 *                                               r111868 2023-03-31            *
 *                                                                             *
 *                                                                             *
 *                              =================                              *
 *                              |               |                              *
 *                              |     A M S     |                              *
 *                              |               |                              *
 *                              =================                              *
 *                                                                             *
 *                                                                             *
 *   Online information and documentation:  https://www.scm.com/support/       *
 *   E-mail:  support@scm.com   info@scm.com                                   *
 *                                                                             *
 *   Scientific publications using AMS results must be properly referenced     *
 *   See the User Manuals (or the web site) for recommended citations          *
 *   The terms and conditions of the End User License Agreement apply to       *
 *   the use of AMS, https://www.scm.com/license-terms/                        *
 *                                                                             *
 ***********************  x86_64_linux_intel / openmpi  ************************
 
 Licensed to: D-CHAB / ETH site license / Zurich / Switzerland 2023-06-23 15:55:12
 SCM User ID: u7035
  
 AMS 2023.101  RunTime: May25-2024 09:19:21  ShM Nodes: 4  Procs: 16

 AMS jobname: gs_ptbu2np
 AMS jobid  : 2050364595

 Start   directory: /cluster/scratch/sroediger/michael/eda/
 Results directory: /cluster/scratch/sroediger/michael/eda/gs_ptbu2np.results/
 Scratch directory: /scratch/amstmp_gs_ptbu2np_kid0.2050364595/


 Communication costs MPI_COMM_WORLD:      8.762 usec per message,   0.0172 usec per 8-byte item
 Communication costs for intra-node:      2.442 usec per message,   0.0108 usec per 8-byte item

 RNG seed: -1852212742 -2140672207 404992535 -853072986 1982582168 1411704561 -1808716867 -2077978992



                     *************************************************************************
                     *  ADF 2023.101  RunTime: May25-2024 09:19:21  ShM Nodes: 4  Procs: 16  *
                     *************************************************************************
  

       ****************************
       * SINGLE POINT CALCULATION *
       ****************************
 
--------
Geometry
--------
Formula: C27H37ClF4NO3PPdS
Atoms
  Index Symbol   x (angstrom)   y (angstrom)   z (angstrom)
      1     Pd     0.82002200    -0.32996100    -0.44256300       region=pdsubstrate adf.f=pdsubstrate
      2      C    -0.33660900     1.27179600    -0.52360300       region=pdsubstrate adf.f=pdsubstrate
      3      C    -0.01689700     2.35448900    -1.34831400       region=pdsubstrate adf.f=pdsubstrate
      4      H     0.91791000     2.35717500    -1.90991800       region=pdsubstrate adf.f=pdsubstrate
      5      C    -0.86754300     3.44582400    -1.48007300       region=pdsubstrate adf.f=pdsubstrate
      6      H    -0.61367500     4.29062000    -2.12321600       region=pdsubstrate adf.f=pdsubstrate
      7      C    -2.07624000     3.47280200    -0.77741000       region=pdsubstrate adf.f=pdsubstrate
      8      C    -2.42890500     2.37975700     0.01256100       region=pdsubstrate adf.f=pdsubstrate
      9      H    -3.39244200     2.35690100     0.51685300       region=pdsubstrate adf.f=pdsubstrate
     10      C    -1.58494200     1.26164500     0.12629400       region=pdsubstrate adf.f=pdsubstrate
     11      C    -2.08194300     0.06261700     0.83552500       region=pdsubstrate adf.f=pdsubstrate
     12      C    -2.85388200     0.13606300     1.99439400       region=pdsubstrate adf.f=pdsubstrate
     13      C    -3.36914400    -1.00420200     2.60635500       region=pdsubstrate adf.f=pdsubstrate
     14      C    -3.09928100    -2.25489900     2.06173400       region=pdsubstrate adf.f=pdsubstrate
     15      C    -2.29709200    -2.36018400     0.92733900       region=pdsubstrate adf.f=pdsubstrate
     16      C    -1.80520700    -1.21687000     0.28976600       region=pdsubstrate adf.f=pdsubstrate
     17      N    -0.90782700    -1.32496000    -0.76919800       region=pdsubstrate adf.f=pdsubstrate
     18      S    -1.27082300    -1.89832000    -2.24078500       region=pdsubstrate adf.f=pdsubstrate
     19      O     0.00452400    -2.24711100    -2.87533800       region=pdsubstrate adf.f=pdsubstrate
     20      O    -2.37318200    -2.84516800    -2.19384600       region=pdsubstrate adf.f=pdsubstrate
     21      C    -1.82789300    -0.48091900    -3.22004800       region=pdsubstrate adf.f=pdsubstrate
     22     Cl    -3.36156600     0.17702000    -2.65560800       region=pdsubstrate adf.f=pdsubstrate
     23      H    -1.93926000    -0.85525800    -4.24673200       region=pdsubstrate adf.f=pdsubstrate
     24      H    -1.04946000     0.28999600    -3.16233300       region=pdsubstrate adf.f=pdsubstrate
     25      F    -1.96588600    -3.56768400     0.50711800       region=pdsubstrate adf.f=pdsubstrate
     26      F    -3.55446200    -3.34330200     2.65897100       region=pdsubstrate adf.f=pdsubstrate
     27      F    -4.09662600    -0.90178800     3.70870000       region=pdsubstrate adf.f=pdsubstrate
     28      F    -3.11473200     1.30727300     2.57518000       region=pdsubstrate adf.f=pdsubstrate
     29      O    -2.84503500     4.56921200    -0.93968400       region=pdsubstrate adf.f=pdsubstrate
     30      C    -4.08965400     4.61610400    -0.29979500       region=pdsubstrate adf.f=pdsubstrate
     31      H    -4.75686600     3.80475400    -0.64060300       region=pdsubstrate adf.f=pdsubstrate
     32      H    -4.54220000     5.58086300    -0.56179900       region=pdsubstrate adf.f=pdsubstrate
     33      H    -3.99058100     4.55419800     0.79849200       region=pdsubstrate adf.f=pdsubstrate
     34      P     2.72127400     0.52408400     0.54015300       region=ligand adf.f=ligand
     35      C     3.95746400    -0.87050800     0.52006500       region=ligand adf.f=ligand
     36      C     3.67827700     2.01202800    -0.13806300       region=ligand adf.f=ligand
     37      C     2.30632700     0.72647900     2.38311600       region=ligand adf.f=ligand
     38      C     3.70379000    -2.09511600    -0.38657600       region=ligand adf.f=ligand
     39      H     4.03475000    -1.21940900     1.56080600       region=ligand adf.f=ligand
     40      H     4.94419400    -0.45220700     0.27636700       region=ligand adf.f=ligand
     41      C     5.11178500     2.13556900     0.38523300       region=ligand adf.f=ligand
     42      C     3.74198800     1.80454000    -1.65524800       region=ligand adf.f=ligand
     43      C     2.92837100     3.30774300     0.18374700       region=ligand adf.f=ligand
     44      C     1.22053900     1.78955900     2.57456100       region=ligand adf.f=ligand
     45      C     1.71182600    -0.61196200     2.84180100       region=ligand adf.f=ligand
     46      C     3.52608700     1.06489900     3.23894000       region=ligand adf.f=ligand
     47      C     3.91407200    -1.75098000    -1.86039900       region=ligand adf.f=ligand
     48      C     4.71793900    -3.16627500     0.03234900       region=ligand adf.f=ligand
     49      C     2.29154600    -2.65671500    -0.21470300       region=ligand adf.f=ligand
     50      H     5.74851800     1.28950000     0.09072900       region=ligand adf.f=ligand
     51      H     5.56389500     3.03923400    -0.05550900       region=ligand adf.f=ligand
     52      H     5.16255600     2.24242400     1.47565300       region=ligand adf.f=ligand
     53      H     4.18340400     2.69764100    -2.12646500       region=ligand adf.f=ligand
     54      H     4.37344800     0.94553200    -1.91975800       region=ligand adf.f=ligand
     55      H     2.75091400     1.63458500    -2.09908400       region=ligand adf.f=ligand
     56      H     3.06767800     3.60195000     1.23313700       region=ligand adf.f=ligand
     57      H     1.85101700     3.24058700    -0.01561900       region=ligand adf.f=ligand
     58      H     3.33737900     4.12054600    -0.43816000       region=ligand adf.f=ligand
     59      H     0.34479200     1.59556400     1.94024600       region=ligand adf.f=ligand
     60      H     0.88910300     1.76793100     3.62529500       region=ligand adf.f=ligand
     61      H     1.57409100     2.80513200     2.36388000       region=ligand adf.f=ligand
     62      H     1.40007000    -0.51480800     3.89399200       region=ligand adf.f=ligand
     63      H     0.81844900    -0.88039600     2.25470700       region=ligand adf.f=ligand
     64      H     2.42687000    -1.44604500     2.79256000       region=ligand adf.f=ligand
     65      H     3.24535600     1.01301800     4.30361700       region=ligand adf.f=ligand
     66      H     4.36231200     0.36529900     3.08682500       region=ligand adf.f=ligand
     67      H     3.88852900     2.08494800     3.05090500       region=ligand adf.f=ligand
     68      H     4.93652800    -1.38523800    -2.04690100       region=ligand adf.f=ligand
     69      H     3.19762400    -0.98605100    -2.19742800       region=ligand adf.f=ligand
     70      H     3.75133100    -2.63931900    -2.48910800       region=ligand adf.f=ligand
     71      H     4.54930100    -3.49167100     1.07134800       region=ligand adf.f=ligand
     72      H     4.63750400    -4.05236200    -0.61564300       region=ligand adf.f=ligand
     73      H     5.74994300    -2.78847400    -0.04038300       region=ligand adf.f=ligand
     74      H     2.22973400    -3.69114900    -0.58655800       region=ligand adf.f=ligand
     75      H     1.94301400    -2.66232100     0.82686000       region=ligand adf.f=ligand
     76      H     1.54497400    -2.16393600    -0.88519600       region=ligand adf.f=ligand
 
Total System Charge             0.00000
Bonding info available!
 
 
----------------
ADF Engine Input
----------------
 
 Basis
 Type TZP
 Core None
 End
 Fragments
 ligand ./gs_ptbu2np.ligand.results/adf.rkf
 pdsubstrate ./gs_ptbu2np.pdsubstrate.results/adf.rkf
 End
 XC
 Hybrid PBE0
 DISPERSION Grimme3 BJDAMP
 End
 NumericalQuality VeryGood
 

 Title: *** (NO TITLE) ***

 *** adf ***



 ===========================
 A T T A C H E D   F I L E S
 ===========================
  



 ===============================
 M O D E L   P A R A M E T E R S
 ===============================
  
 DENSITY FUNCTIONAL POTENTIAL (scf)
    Hybrid:                            PBE0                                    == Not Default ==

 SPIN  (restricted / unrestr.)
    Molecule:                          Restricted                               
    Fragments:                         Restricted                               

 OTHER ASPECTS
    Relativistic Corrections:          scalar (ZORA,MAPA)                       

    Nuclear Charge Density Model:      Point Charge Nuclei                      
    Core Treatment:                    Frozen Orbital(s)                        

    Hyperfine or Zeeman Interaction:   ---                                      

 Settings for Grimme D3 dispersion correction

      damping                        BJ
      s6                          1.000
      s8                          1.218
      a1                          0.414
      a2                          4.859

 Other (technical) parameters

      alpha                      14.000
      version                         4
 


 Fragment File(s)
 ----------------
 pdsubstrate:
         file : ./gs_ptbu2np.pdsubstrate.results/adf.rkf
         jobid: 1100857579
         title: *** adf ***
 ligand:
         file : ./gs_ptbu2np.ligand.results/adf.rkf
         jobid: 1045830148
         title: *** adf ***



 ===============
 G E O M E T R Y  ***  3D  Molecule  ***
 ===============
  

 ATOMS
 =====                            X Y Z                    CHARGE
                                (Angstrom)             Nucl     +Core       At.Mass
                       --------------------------    ----------------       -------
    1  Pd              0.8200   -0.3300   -0.4426     46.00     46.00      105.9035
    2  C              -0.3366    1.2718   -0.5236      6.00      6.00       12.0000
    3  C              -0.0169    2.3545   -1.3483      6.00      6.00       12.0000
    4  H               0.9179    2.3572   -1.9099      1.00      1.00        1.0078
    5  C              -0.8675    3.4458   -1.4801      6.00      6.00       12.0000
    6  H              -0.6137    4.2906   -2.1232      1.00      1.00        1.0078
    7  C              -2.0762    3.4728   -0.7774      6.00      6.00       12.0000
    8  C              -2.4289    2.3798    0.0126      6.00      6.00       12.0000
    9  H              -3.3924    2.3569    0.5169      1.00      1.00        1.0078
   10  C              -1.5849    1.2616    0.1263      6.00      6.00       12.0000
   11  C              -2.0819    0.0626    0.8355      6.00      6.00       12.0000
   12  C              -2.8539    0.1361    1.9944      6.00      6.00       12.0000
   13  C              -3.3691   -1.0042    2.6064      6.00      6.00       12.0000
   14  C              -3.0993   -2.2549    2.0617      6.00      6.00       12.0000
   15  C              -2.2971   -2.3602    0.9273      6.00      6.00       12.0000
   16  C              -1.8052   -1.2169    0.2898      6.00      6.00       12.0000
   17  N              -0.9078   -1.3250   -0.7692      7.00      7.00       14.0031
   18  S              -1.2708   -1.8983   -2.2408     16.00     16.00       31.9721
   19  O               0.0045   -2.2471   -2.8753      8.00      8.00       15.9949
   20  O              -2.3732   -2.8452   -2.1938      8.00      8.00       15.9949
   21  C              -1.8279   -0.4809   -3.2200      6.00      6.00       12.0000
   22  Cl             -3.3616    0.1770   -2.6556     17.00     17.00       34.9689
   23  H              -1.9393   -0.8553   -4.2467      1.00      1.00        1.0078
   24  H              -1.0495    0.2900   -3.1623      1.00      1.00        1.0078
   25  F              -1.9659   -3.5677    0.5071      9.00      9.00       18.9984
   26  F              -3.5545   -3.3433    2.6590      9.00      9.00       18.9984
   27  F              -4.0966   -0.9018    3.7087      9.00      9.00       18.9984
   28  F              -3.1147    1.3073    2.5752      9.00      9.00       18.9984
   29  O              -2.8450    4.5692   -0.9397      8.00      8.00       15.9949
   30  C              -4.0897    4.6161   -0.2998      6.00      6.00       12.0000
   31  H              -4.7569    3.8048   -0.6406      1.00      1.00        1.0078
   32  H              -4.5422    5.5809   -0.5618      1.00      1.00        1.0078
   33  H              -3.9906    4.5542    0.7985      1.00      1.00        1.0078
   34  P               2.7213    0.5241    0.5402     15.00     15.00       30.9738
   35  C               3.9575   -0.8705    0.5201      6.00      6.00       12.0000
   36  C               3.6783    2.0120   -0.1381      6.00      6.00       12.0000
   37  C               2.3063    0.7265    2.3831      6.00      6.00       12.0000
   38  C               3.7038   -2.0951   -0.3866      6.00      6.00       12.0000
   39  H               4.0347   -1.2194    1.5608      1.00      1.00        1.0078
   40  H               4.9442   -0.4522    0.2764      1.00      1.00        1.0078
   41  C               5.1118    2.1356    0.3852      6.00      6.00       12.0000
   42  C               3.7420    1.8045   -1.6552      6.00      6.00       12.0000
   43  C               2.9284    3.3077    0.1837      6.00      6.00       12.0000
   44  C               1.2205    1.7896    2.5746      6.00      6.00       12.0000
   45  C               1.7118   -0.6120    2.8418      6.00      6.00       12.0000
   46  C               3.5261    1.0649    3.2389      6.00      6.00       12.0000
   47  C               3.9141   -1.7510   -1.8604      6.00      6.00       12.0000
   48  C               4.7179   -3.1663    0.0323      6.00      6.00       12.0000
   49  C               2.2915   -2.6567   -0.2147      6.00      6.00       12.0000
   50  H               5.7485    1.2895    0.0907      1.00      1.00        1.0078
   51  H               5.5639    3.0392   -0.0555      1.00      1.00        1.0078
   52  H               5.1626    2.2424    1.4757      1.00      1.00        1.0078
   53  H               4.1834    2.6976   -2.1265      1.00      1.00        1.0078
   54  H               4.3734    0.9455   -1.9198      1.00      1.00        1.0078
   55  H               2.7509    1.6346   -2.0991      1.00      1.00        1.0078
   56  H               3.0677    3.6019    1.2331      1.00      1.00        1.0078
   57  H               1.8510    3.2406   -0.0156      1.00      1.00        1.0078
   58  H               3.3374    4.1205   -0.4382      1.00      1.00        1.0078
   59  H               0.3448    1.5956    1.9402      1.00      1.00        1.0078
   60  H               0.8891    1.7679    3.6253      1.00      1.00        1.0078
   61  H               1.5741    2.8051    2.3639      1.00      1.00        1.0078
   62  H               1.4001   -0.5148    3.8940      1.00      1.00        1.0078
   63  H               0.8184   -0.8804    2.2547      1.00      1.00        1.0078
   64  H               2.4269   -1.4460    2.7926      1.00      1.00        1.0078
   65  H               3.2454    1.0130    4.3036      1.00      1.00        1.0078
   66  H               4.3623    0.3653    3.0868      1.00      1.00        1.0078
   67  H               3.8885    2.0849    3.0509      1.00      1.00        1.0078
   68  H               4.9365   -1.3852   -2.0469      1.00      1.00        1.0078
   69  H               3.1976   -0.9861   -2.1974      1.00      1.00        1.0078
   70  H               3.7513   -2.6393   -2.4891      1.00      1.00        1.0078
   71  H               4.5493   -3.4917    1.0713      1.00      1.00        1.0078
   72  H               4.6375   -4.0524   -0.6156      1.00      1.00        1.0078
   73  H               5.7499   -2.7885   -0.0404      1.00      1.00        1.0078
   74  H               2.2297   -3.6911   -0.5866      1.00      1.00        1.0078
   75  H               1.9430   -2.6623    0.8269      1.00      1.00        1.0078
   76  H               1.5450   -2.1639   -0.8852      1.00      1.00        1.0078


 FRAGMENTS
 =========                                     Atoms in this Fragment     Cart. coord.s (Angstrom)
                                               -------------------------------------------------------
    1  pdsubstrate                                       1  Pd           0.8200   -0.3300   -0.4426
                                                         2  C           -0.3366    1.2718   -0.5236
                                                         3  C           -0.0169    2.3545   -1.3483
                                                         5  C           -0.8675    3.4458   -1.4801
                                                         7  C           -2.0762    3.4728   -0.7774
                                                         8  C           -2.4289    2.3798    0.0126
                                                        10  C           -1.5849    1.2616    0.1263
                                                        11  C           -2.0819    0.0626    0.8355
                                                        12  C           -2.8539    0.1361    1.9944
                                                        13  C           -3.3691   -1.0042    2.6064
                                                        14  C           -3.0993   -2.2549    2.0617
                                                        15  C           -2.2971   -2.3602    0.9273
                                                        16  C           -1.8052   -1.2169    0.2898
                                                        21  C           -1.8279   -0.4809   -3.2200
                                                        30  C           -4.0897    4.6161   -0.2998
                                                         4  H            0.9179    2.3572   -1.9099
                                                         6  H           -0.6137    4.2906   -2.1232
                                                         9  H           -3.3924    2.3569    0.5169
                                                        23  H           -1.9393   -0.8553   -4.2467
                                                        24  H           -1.0495    0.2900   -3.1623
                                                        31  H           -4.7569    3.8048   -0.6406
                                                        32  H           -4.5422    5.5809   -0.5618
                                                        33  H           -3.9906    4.5542    0.7985
                                                        17  N           -0.9078   -1.3250   -0.7692
                                                        18  S           -1.2708   -1.8983   -2.2408
                                                        19  O            0.0045   -2.2471   -2.8753
                                                        20  O           -2.3732   -2.8452   -2.1938
                                                        29  O           -2.8450    4.5692   -0.9397
                                                        22  Cl          -3.3616    0.1770   -2.6556
                                                        25  F           -1.9659   -3.5677    0.5071
                                                        26  F           -3.5545   -3.3433    2.6590
                                                        27  F           -4.0966   -0.9018    3.7087
                                                        28  F           -3.1147    1.3073    2.5752
    2  ligand                                           44  C            1.2205    1.7896    2.5746
                                                        45  C            1.7118   -0.6120    2.8418
                                                        46  C            3.5261    1.0649    3.2389
                                                        47  C            3.9141   -1.7510   -1.8604
                                                        48  C            4.7179   -3.1663    0.0323
                                                        49  C            2.2915   -2.6567   -0.2147
                                                        35  C            3.9575   -0.8705    0.5201
                                                        36  C            3.6783    2.0120   -0.1381
                                                        37  C            2.3063    0.7265    2.3831
                                                        38  C            3.7038   -2.0951   -0.3866
                                                        41  C            5.1118    2.1356    0.3852
                                                        42  C            3.7420    1.8045   -1.6552
                                                        43  C            2.9284    3.3077    0.1837
                                                        50  H            5.7485    1.2895    0.0907
                                                        51  H            5.5639    3.0392   -0.0555
                                                        52  H            5.1626    2.2424    1.4757
                                                        53  H            4.1834    2.6976   -2.1265
                                                        54  H            4.3734    0.9455   -1.9198
                                                        55  H            2.7509    1.6346   -2.0991
                                                        56  H            3.0677    3.6019    1.2331
                                                        57  H            1.8510    3.2406   -0.0156
                                                        58  H            3.3374    4.1205   -0.4382
                                                        59  H            0.3448    1.5956    1.9402
                                                        60  H            0.8891    1.7679    3.6253
                                                        61  H            1.5741    2.8051    2.3639
                                                        62  H            1.4001   -0.5148    3.8940
                                                        63  H            0.8184   -0.8804    2.2547
                                                        64  H            2.4269   -1.4460    2.7926
                                                        65  H            3.2454    1.0130    4.3036
                                                        66  H            4.3623    0.3653    3.0868
                                                        67  H            3.8885    2.0849    3.0509
                                                        68  H            4.9365   -1.3852   -2.0469
                                                        69  H            3.1976   -0.9861   -2.1974
                                                        70  H            3.7513   -2.6393   -2.4891
                                                        71  H            4.5493   -3.4917    1.0713
                                                        72  H            4.6375   -4.0524   -0.6156
                                                        73  H            5.7499   -2.7885   -0.0404
                                                        74  H            2.2297   -3.6911   -0.5866
                                                        75  H            1.9430   -2.6623    0.8269
                                                        76  H            1.5450   -2.1639   -0.8852
                                                        39  H            4.0347   -1.2194    1.5608
                                                        40  H            4.9442   -0.4522    0.2764
                                                        34  P            2.7213    0.5241    0.5402



 =====================================
 S Y M M E T R Y ,   E L E C T R O N S
 =====================================
  
 Symmetry: NOSYM

 Irreducible Representations, including subspecies
 -------------------------------------------------
 A


 Configuration of Valence Electrons
 ==================================
 ( determined in the SCF procedure )

 Total:   360

 Net Charge: 0 (Nuclei minus Electrons)

 Aufbau principle for MO occupations will be applied through SCF cycle no.     150
 Thereafter, the program will assign electrons to MOs that are spatially
 similar to the occupied MOs in a "reference" cycle ("KeepOrbitals").
 The reference cycle is always the PREVIOUS cycle: it will evolve with
 the SCF procedure.
1
 ***************************************************************************************************



                                      ****************************************
                                      *  B U I L D : (Fragments, Functions)  *
                                      ****************************************
  

 The individual fragments are copies of the corresponding 'Master' fragments defined on the fragment files.
 However, they may have been rotated (and translated) with respect to the Master. The local coordinate axes
 of each fragment (which define for instance the spatial orientation in the current molecule of a fragment
 P:x orbital) are not necessarily those of the molecule.
 The local frame (if different from the molecular one) is printed to enable an interpretation of the expan-
 sion of an MO in Fragment Orbitals.



                                         *********************************
                                         *  Fragment Type : pdsubstrate  *
                                         *********************************
  

 Fragment no.    1   (in the list of all fragments)
 -----------------
 The local coordinate frame is identical to the molecular frame.

 Check Atomic Coordinates:

                  Master (on file)          After Computed Tranformation               As specified on Input
           ----------------------------     ----------------------------     ---------------------------------
     1)     0.82002  -0.32996  -0.44256      0.82002  -0.32996  -0.44256       1   0.82002  -0.32996  -0.44256
     2)    -0.33661   1.27180  -0.52360     -0.33661   1.27180  -0.52360       2  -0.33661   1.27180  -0.52360
     3)    -0.01690   2.35449  -1.34831     -0.01690   2.35449  -1.34831       3  -0.01690   2.35449  -1.34831
     4)    -0.86754   3.44582  -1.48007     -0.86754   3.44582  -1.48007       5  -0.86754   3.44582  -1.48007
     5)    -2.07624   3.47280  -0.77741     -2.07624   3.47280  -0.77741       7  -2.07624   3.47280  -0.77741
     6)    -2.42890   2.37976   0.01256     -2.42890   2.37976   0.01256       8  -2.42890   2.37976   0.01256
     7)    -1.58494   1.26164   0.12629     -1.58494   1.26164   0.12629      10  -1.58494   1.26164   0.12629
     8)    -2.08194   0.06262   0.83552     -2.08194   0.06262   0.83552      11  -2.08194   0.06262   0.83552
     9)    -2.85388   0.13606   1.99439     -2.85388   0.13606   1.99439      12  -2.85388   0.13606   1.99439
    10)    -3.36914  -1.00420   2.60636     -3.36914  -1.00420   2.60636      13  -3.36914  -1.00420   2.60636
    11)    -3.09928  -2.25490   2.06173     -3.09928  -2.25490   2.06173      14  -3.09928  -2.25490   2.06173
    12)    -2.29709  -2.36018   0.92734     -2.29709  -2.36018   0.92734      15  -2.29709  -2.36018   0.92734
    13)    -1.80521  -1.21687   0.28977     -1.80521  -1.21687   0.28977      16  -1.80521  -1.21687   0.28977
    14)    -1.82789  -0.48092  -3.22005     -1.82789  -0.48092  -3.22005      21  -1.82789  -0.48092  -3.22005
    15)    -4.08965   4.61610  -0.29979     -4.08965   4.61610  -0.29979      30  -4.08965   4.61610  -0.29979
    16)     0.91791   2.35717  -1.90992      0.91791   2.35717  -1.90992       4   0.91791   2.35717  -1.90992
    17)    -0.61367   4.29062  -2.12322     -0.61367   4.29062  -2.12322       6  -0.61367   4.29062  -2.12322
    18)    -3.39244   2.35690   0.51685     -3.39244   2.35690   0.51685       9  -3.39244   2.35690   0.51685
    19)    -1.93926  -0.85526  -4.24673     -1.93926  -0.85526  -4.24673      23  -1.93926  -0.85526  -4.24673
    20)    -1.04946   0.29000  -3.16233     -1.04946   0.29000  -3.16233      24  -1.04946   0.29000  -3.16233
    21)    -4.75687   3.80475  -0.64060     -4.75687   3.80475  -0.64060      31  -4.75687   3.80475  -0.64060
    22)    -4.54220   5.58086  -0.56180     -4.54220   5.58086  -0.56180      32  -4.54220   5.58086  -0.56180
    23)    -3.99058   4.55420   0.79849     -3.99058   4.55420   0.79849      33  -3.99058   4.55420   0.79849
    24)    -0.90783  -1.32496  -0.76920     -0.90783  -1.32496  -0.76920      17  -0.90783  -1.32496  -0.76920
    25)    -1.27082  -1.89832  -2.24078     -1.27082  -1.89832  -2.24078      18  -1.27082  -1.89832  -2.24078
    26)     0.00452  -2.24711  -2.87534      0.00452  -2.24711  -2.87534      19   0.00452  -2.24711  -2.87534
    27)    -2.37318  -2.84517  -2.19385     -2.37318  -2.84517  -2.19385      20  -2.37318  -2.84517  -2.19385
    28)    -2.84504   4.56921  -0.93968     -2.84504   4.56921  -0.93968      29  -2.84504   4.56921  -0.93968
    29)    -3.36157   0.17702  -2.65561     -3.36157   0.17702  -2.65561      22  -3.36157   0.17702  -2.65561
    30)    -1.96589  -3.56768   0.50712     -1.96589  -3.56768   0.50712      25  -1.96589  -3.56768   0.50712
    31)    -3.55446  -3.34330   2.65897     -3.55446  -3.34330   2.65897      26  -3.55446  -3.34330   2.65897
    32)    -4.09663  -0.90179   3.70870     -4.09663  -0.90179   3.70870      27  -4.09663  -0.90179   3.70870
    33)    -3.11473   1.30727   2.57518     -3.11473   1.30727   2.57518      28  -3.11473   1.30727   2.57518



                                            ****************************
                                            *  Fragment Type : ligand  *
                                            ****************************
  

 Fragment no.    2   (in the list of all fragments)
 -----------------
 The local coordinate frame is identical to the molecular frame.

 Check Atomic Coordinates:

                  Master (on file)          After Computed Tranformation               As specified on Input
           ----------------------------     ----------------------------     ---------------------------------
     1)     1.22054   1.78956   2.57456      1.22054   1.78956   2.57456      44   1.22054   1.78956   2.57456
     2)     1.71183  -0.61196   2.84180      1.71183  -0.61196   2.84180      45   1.71183  -0.61196   2.84180
     3)     3.52609   1.06490   3.23894      3.52609   1.06490   3.23894      46   3.52609   1.06490   3.23894
     4)     3.91407  -1.75098  -1.86040      3.91407  -1.75098  -1.86040      47   3.91407  -1.75098  -1.86040
     5)     4.71794  -3.16628   0.03235      4.71794  -3.16628   0.03235      48   4.71794  -3.16628   0.03235
     6)     2.29155  -2.65672  -0.21470      2.29155  -2.65672  -0.21470      49   2.29155  -2.65672  -0.21470
     7)     3.95746  -0.87051   0.52006      3.95746  -0.87051   0.52006      35   3.95746  -0.87051   0.52006
     8)     3.67828   2.01203  -0.13806      3.67828   2.01203  -0.13806      36   3.67828   2.01203  -0.13806
     9)     2.30633   0.72648   2.38312      2.30633   0.72648   2.38312      37   2.30633   0.72648   2.38312
    10)     3.70379  -2.09512  -0.38658      3.70379  -2.09512  -0.38658      38   3.70379  -2.09512  -0.38658
    11)     5.11179   2.13557   0.38523      5.11179   2.13557   0.38523      41   5.11179   2.13557   0.38523
    12)     3.74199   1.80454  -1.65525      3.74199   1.80454  -1.65525      42   3.74199   1.80454  -1.65525
    13)     2.92837   3.30774   0.18375      2.92837   3.30774   0.18375      43   2.92837   3.30774   0.18375
    14)     5.74852   1.28950   0.09073      5.74852   1.28950   0.09073      50   5.74852   1.28950   0.09073
    15)     5.56389   3.03923  -0.05551      5.56389   3.03923  -0.05551      51   5.56389   3.03923  -0.05551
    16)     5.16256   2.24242   1.47565      5.16256   2.24242   1.47565      52   5.16256   2.24242   1.47565
    17)     4.18340   2.69764  -2.12647      4.18340   2.69764  -2.12647      53   4.18340   2.69764  -2.12647
    18)     4.37345   0.94553  -1.91976      4.37345   0.94553  -1.91976      54   4.37345   0.94553  -1.91976
    19)     2.75091   1.63458  -2.09908      2.75091   1.63458  -2.09908      55   2.75091   1.63458  -2.09908
    20)     3.06768   3.60195   1.23314      3.06768   3.60195   1.23314      56   3.06768   3.60195   1.23314
    21)     1.85102   3.24059  -0.01562      1.85102   3.24059  -0.01562      57   1.85102   3.24059  -0.01562
    22)     3.33738   4.12055  -0.43816      3.33738   4.12055  -0.43816      58   3.33738   4.12055  -0.43816
    23)     0.34479   1.59556   1.94025      0.34479   1.59556   1.94025      59   0.34479   1.59556   1.94025
    24)     0.88910   1.76793   3.62529      0.88910   1.76793   3.62529      60   0.88910   1.76793   3.62529
    25)     1.57409   2.80513   2.36388      1.57409   2.80513   2.36388      61   1.57409   2.80513   2.36388
    26)     1.40007  -0.51481   3.89399      1.40007  -0.51481   3.89399      62   1.40007  -0.51481   3.89399
    27)     0.81845  -0.88040   2.25471      0.81845  -0.88040   2.25471      63   0.81845  -0.88040   2.25471
    28)     2.42687  -1.44605   2.79256      2.42687  -1.44605   2.79256      64   2.42687  -1.44605   2.79256
    29)     3.24536   1.01302   4.30362      3.24536   1.01302   4.30362      65   3.24536   1.01302   4.30362
    30)     4.36231   0.36530   3.08683      4.36231   0.36530   3.08683      66   4.36231   0.36530   3.08683
    31)     3.88853   2.08495   3.05090      3.88853   2.08495   3.05090      67   3.88853   2.08495   3.05090
    32)     4.93653  -1.38524  -2.04690      4.93653  -1.38524  -2.04690      68   4.93653  -1.38524  -2.04690
    33)     3.19762  -0.98605  -2.19743      3.19762  -0.98605  -2.19743      69   3.19762  -0.98605  -2.19743
    34)     3.75133  -2.63932  -2.48911      3.75133  -2.63932  -2.48911      70   3.75133  -2.63932  -2.48911
    35)     4.54930  -3.49167   1.07135      4.54930  -3.49167   1.07135      71   4.54930  -3.49167   1.07135
    36)     4.63750  -4.05236  -0.61564      4.63750  -4.05236  -0.61564      72   4.63750  -4.05236  -0.61564
    37)     5.74994  -2.78847  -0.04038      5.74994  -2.78847  -0.04038      73   5.74994  -2.78847  -0.04038
    38)     2.22973  -3.69115  -0.58656      2.22973  -3.69115  -0.58656      74   2.22973  -3.69115  -0.58656
    39)     1.94301  -2.66232   0.82686      1.94301  -2.66232   0.82686      75   1.94301  -2.66232   0.82686
    40)     1.54497  -2.16394  -0.88520      1.54497  -2.16394  -0.88520      76   1.54497  -2.16394  -0.88520
    41)     4.03475  -1.21941   1.56081      4.03475  -1.21941   1.56081      39   4.03475  -1.21941   1.56081
    42)     4.94419  -0.45221   0.27637      4.94419  -0.45221   0.27637      40   4.94419  -0.45221   0.27637
    43)     2.72127   0.52408   0.54015      2.72127   0.52408   0.54015      34   2.72127   0.52408   0.54015

 Total nr. of (C)SFOs (summation over all irreps) :  1034

 Specify PRINT SFO in the input file to get a full list

 Nr. of SFOs for ir.rep.           A :  1034



 ================================
 (Slater-type)  F U N C T I O N S  ***  (Basis and Fit)  ***
 ================================
  

 Atom Type    1  (Pd)
 ==============

 Valence Basis Sets:  26
 -----------------------
   1 S  306.000000
   1 S   76.400000
   1 S   45.900000
   2 S   53.800000
   2 S   19.550000
   3 S   10.150000
   3 S    6.650000
   4 S    6.150000
   4 S    3.900000
   5 S    2.500000
   5 S    1.450000
   5 S    0.850000
   2 P   29.100000
   2 P   18.750000
   3 P   11.250000
   3 P    8.100000
   4 P    5.950000
   4 P    3.950000
   4 P    2.700000
   3 D   17.550000
   3 D   10.450000
   3 D    6.900000
   4 D    4.250000
   4 D    2.200000
   4 D    1.100000
   5 P    1.450000

 Charge Fitting Sets (for the computation of the Coulomb Potential):  58
 -----------------------------------------------------------------------
   1 S  612.000000
   1 S  446.101000
   1 S  325.174000
   1 S  237.027000
   1 S  172.774000
   1 S  125.939000
   1 S   91.800000
   1 S   53.670000
   2 S   58.190000
   2 S   38.430000
   3 S   37.300000
   3 S   26.280000
   4 S   24.500000
   4 S   18.000000
   5 S   16.470000
   5 S   12.460000
   6 S   11.300000
   6 S    8.740000
   7 S    7.890000
   7 S    6.210000
   8 S    5.590000
   8 S    4.470000
   8 S    3.570000
   9 S    3.210000
   9 S    2.600000
   9 S    2.100000
   9 S    1.700000
   2 P   64.650000
   3 P   49.410000
   4 P   37.530000
   5 P   28.620000
   6 P   21.980000
   6 P   14.500000
   7 P   11.220000
   7 P    7.620000
   8 P    5.940000
   8 P    4.130000
   9 P    3.240000
   9 P    2.300000
   3 D   56.350000
   4 D   37.260000
   5 D   25.120000
   6 D   17.230000
   6 D   10.190000
   7 D    7.110000
   7 D    4.360000
   8 D    3.090000
   8 D    1.950000
   4 F   47.900000
   5 F   28.270000
   6 F   17.190000
   6 F    9.040000
   7 F    5.640000
   7 F    3.100000
   5 G   20.900000
   6 G    9.980000
   7 G    4.980000
   7 G    2.200000

 Atom Type    2  (C)
 ==============

 Valence Basis Sets:   9
 -----------------------
   1 S    7.680000
   1 S    5.000000
   2 S    1.280000
   2 S    2.100000
   2 S    4.600000
   2 P    0.820000
   2 P    1.480000
   2 P    2.940000
   3 D    2.200000

 Charge Fitting Sets (for the computation of the Coulomb Potential):  22
 -----------------------------------------------------------------------
   1 S   15.360000
   2 S   17.530000
   2 S   12.070000
   2 S    8.310000
   2 S    5.730000
   3 S    5.780000
   3 S    4.220000
   3 S    3.080000
   3 S    2.250000
   3 S    1.640000
   2 P    9.880000
   2 P    5.800000
   3 P    5.050000
   3 P    3.230000
   3 P    2.060000
   3 D    7.200000
   3 D    4.400000
   3 D    2.690000
   3 D    1.640000
   4 F    5.400000
   4 F    3.550000
   5 G    4.500000

 Atom Type    3  (H)
 ==============

 Valence Basis Sets:   4
 -----------------------
   1 S    0.690000
   1 S    0.920000
   1 S    1.580000
   2 P    1.250000

 Charge Fitting Sets (for the computation of the Coulomb Potential):  11
 -----------------------------------------------------------------------
   1 S    3.160000
   1 S    2.090000
   1 S    1.380000
   2 S    1.500000
   2 P    4.000000
   2 P    2.650000
   2 P    1.750000
   3 D    4.000000
   3 D    2.500000
   4 F    3.000000
   5 G    4.000000

 Atom Type    4  (N)
 ==============

 Valence Basis Sets:   9
 -----------------------
   1 S    8.740000
   1 S    5.900000
   2 S    5.150000
   2 S    2.500000
   2 S    1.500000
   2 P    3.680000
   2 P    1.880000
   2 P    1.000000
   3 D    2.200000

 Charge Fitting Sets (for the computation of the Coulomb Potential):  22
 -----------------------------------------------------------------------
   1 S   17.480000
   2 S   20.150000
   2 S   13.990000
   2 S    9.710000
   2 S    6.740000
   3 S    6.860000
   3 S    5.040000
   3 S    3.700000
   3 S    2.720000
   3 S    2.000000
   2 P   11.320000
   2 P    6.730000
   3 P    5.920000
   3 P    3.820000
   3 P    2.460000
   3 D    8.100000
   3 D    5.080000
   3 D    3.190000
   3 D    2.000000
   4 F    5.800000
   4 F    3.600000
   5 G    4.500000

 Atom Type    5  (S)
 ==============

 Valence Basis Sets:  13
 -----------------------
   1 S   19.400000
   1 S   14.350000
   2 S    5.900000
   2 S    4.250000
   2 P    8.050000
   2 P    4.550000
   3 S    3.450000
   3 S    2.250000
   3 S    1.500000
   3 P    2.650000
   3 P    1.600000
   3 P    1.000000
   3 D    2.100000

 Charge Fitting Sets (for the computation of the Coulomb Potential):  30
 -----------------------------------------------------------------------
   1 S   38.800000
   1 S   23.350000
   2 S   26.020000
   2 S   17.570000
   3 S   17.420000
   3 S   12.500000
   3 S    8.980000
   4 S    8.520000
   4 S    6.360000
   4 S    4.750000
   5 S    4.420000
   5 S    3.390000
   5 S    2.600000
   5 S    2.000000
   2 P   27.450000
   3 P   20.250000
   4 P   14.920000
   4 P    8.780000
   5 P    6.520000
   5 P    4.040000
   5 P    2.500000
   3 D   20.900000
   4 D   14.560000
   4 D    8.130000
   5 D    5.740000
   5 D    3.390000
   5 D    2.000000
   4 F    5.000000
   4 F    3.000000
   5 G    3.620000

 Atom Type    6  (O)
 ==============

 Valence Basis Sets:   9
 -----------------------
   1 S    9.800000
   1 S    6.800000
   2 S    7.580000
   2 S    2.880000
   2 S    1.720000
   2 P    4.080000
   2 P    2.080000
   2 P    1.120000
   3 D    2.000000

 Charge Fitting Sets (for the computation of the Coulomb Potential):  22
 -----------------------------------------------------------------------
   1 S   19.600000
   2 S   22.600000
   2 S   15.680000
   2 S   10.890000
   2 S    7.560000
   3 S    7.690000
   3 S    5.650000
   3 S    4.150000
   3 S    3.050000
   3 S    2.240000
   2 P   12.860000
   2 P    7.680000
   3 P    6.780000
   3 P    4.390000
   3 P    2.840000
   3 D    8.800000
   3 D    5.580000
   3 D    3.530000
   3 D    2.240000
   4 F    6.200000
   4 F    3.700000
   5 G    4.500000

 Atom Type    7  (Cl)
 ==============

 Valence Basis Sets:  13
 -----------------------
   1 S   20.300000
   1 S   15.250000
   2 S    6.250000
   2 S    4.450000
   2 P    8.850000
   2 P    5.050000
   3 S    3.450000
   3 S    2.300000
   3 S    1.600000
   3 P    3.350000
   3 P    2.050000
   3 P    1.200000
   3 D    2.000000

 Charge Fitting Sets (for the computation of the Coulomb Potential):  30
 -----------------------------------------------------------------------
   1 S   40.600000
   1 S   24.830000
   2 S   28.080000
   2 S   19.200000
   3 S   19.250000
   3 S   13.970000
   3 S   10.130000
   4 S    9.710000
   4 S    7.320000
   4 S    5.510000
   5 S    5.170000
   5 S    4.000000
   5 S    3.100000
   5 S    2.400000
   2 P   29.150000
   3 P   21.740000
   4 P   16.160000
   4 P    9.600000
   5 P    7.180000
   5 P    4.480000
   5 P    2.800000
   3 D   21.950000
   4 D   15.750000
   4 D    9.040000
   5 D    6.550000
   5 D    3.960000
   5 D    2.400000
   4 F    5.000000
   4 F    3.000000
   5 G    3.500000

 Atom Type    8  (F)
 ==============

 Valence Basis Sets:   9
 -----------------------
   1 S   10.880000
   1 S    7.700000
   2 S    3.240000
   2 S    1.940000
   2 S    0.740000
   2 P    4.540000
   2 P    2.300000
   2 P    1.240000
   3 D    2.000000

 Charge Fitting Sets (for the computation of the Coulomb Potential):  23
 -----------------------------------------------------------------------
   1 S   21.760000
   2 S   24.390000
   2 S   16.560000
   2 S   11.240000
   2 S    7.630000
   3 S    7.600000
   3 S    5.480000
   3 S    3.950000
   3 S    2.850000
   3 S    2.050000
   3 S    1.480000
   2 P   14.400000
   2 P    7.530000
   3 P    5.900000
   3 P    3.420000
   3 P    1.980000
   3 D    9.700000
   3 D    6.160000
   3 D    3.910000
   3 D    2.480000
   4 F    6.500000
   4 F    3.750000
   5 G    4.500000

 Atom Type    9  (C)
 ==============

 Valence Basis Sets:   9
 -----------------------
   1 S    7.680000
   1 S    5.000000
   2 S    1.280000
   2 S    2.100000
   2 S    4.600000
   2 P    0.820000
   2 P    1.480000
   2 P    2.940000
   3 D    2.200000

 Charge Fitting Sets (for the computation of the Coulomb Potential):  22
 -----------------------------------------------------------------------
   1 S   15.360000
   2 S   17.530000
   2 S   12.070000
   2 S    8.310000
   2 S    5.730000
   3 S    5.780000
   3 S    4.220000
   3 S    3.080000
   3 S    2.250000
   3 S    1.640000
   2 P    9.880000
   2 P    5.800000
   3 P    5.050000
   3 P    3.230000
   3 P    2.060000
   3 D    7.200000
   3 D    4.400000
   3 D    2.690000
   3 D    1.640000
   4 F    5.400000
   4 F    3.550000
   5 G    4.500000

 Atom Type   10  (H)
 ==============

 Valence Basis Sets:   4
 -----------------------
   1 S    0.690000
   1 S    0.920000
   1 S    1.580000
   2 P    1.250000

 Charge Fitting Sets (for the computation of the Coulomb Potential):  11
 -----------------------------------------------------------------------
   1 S    3.160000
   1 S    2.090000
   1 S    1.380000
   2 S    1.500000
   2 P    4.000000
   2 P    2.650000
   2 P    1.750000
   3 D    4.000000
   3 D    2.500000
   4 F    3.000000
   5 G    4.000000

 Atom Type   11  (P)
 ==============

 Valence Basis Sets:  13
 -----------------------
   1 S   18.000000
   1 S   13.350000
   2 S    5.600000
   2 S    4.050000
   2 P    7.450000
   2 P    4.100000
   3 S    2.700000
   3 S    1.850000
   3 S    1.300000
   3 P    2.300000
   3 P    1.350000
   3 P    0.850000
   3 D    1.900000

 Charge Fitting Sets (for the computation of the Coulomb Potential):  30
 -----------------------------------------------------------------------
   1 S   36.000000
   1 S   21.450000
   2 S   23.670000
   2 S   15.860000
   3 S   15.600000
   3 S   11.130000
   3 S    7.940000
   4 S    7.490000
   4 S    5.560000
   4 S    4.130000
   5 S    3.810000
   5 S    2.910000
   5 S    2.230000
   5 S    1.700000
   2 P   25.450000
   3 P   18.490000
   4 P   13.440000
   4 P    7.810000
   5 P    5.730000
   5 P    3.510000
   5 P    2.150000
   3 D   19.350000
   4 D   13.230000
   4 D    7.250000
   5 D    5.040000
   5 D    2.930000
   5 D    1.700000
   4 F    5.000000
   4 F    3.000000
   5 G    3.750000


 BAS: List of all Elementary Cartesian Basis Functions
 =====================================================

 The numbering in the list below (to the right of the function characteristics) is referred
 to in print-outs of MO eigenvectors and Mulliken populations in the BAS representation
 (as contrasted to the SFO representation).

 Notes:
 1. The functions are characterized by a polynomial prefactor (powers of x,y,z and r) and
    an exponential decay factor alpha.
 2. Since the basis sets are specific for an atom TYPE, the individual functions occur on
    all atoms of that type.
 3. The word 'Core' in the left margin signals that it is a Core Function (CF) : not a
    degree of freedom in the valence set, but only used to ensure orthogonalization of
    the other valence basis functions on the frozen Core Orbitals.


 (power of) X  Y  Z  R     Alpha  on Atom
            ==========     =====     ==========

 Pd                                   1
                                  ---------------------------------------------------------------------------
            0  0  0  0   306.000      1
            0  0  0  0    76.400      2
            0  0  0  0    45.900      3
            0  0  0  1    53.800      4
            0  0  0  1    19.550      5
            0  0  0  2    10.150      6
            0  0  0  2     6.650      7
            0  0  0  3     6.150      8
            0  0  0  3     3.900      9
            0  0  0  4     2.500     10
            0  0  0  4     1.450     11
            0  0  0  4     0.850     12
            1  0  0  0    29.100     13
            0  1  0  0    29.100     14
            0  0  1  0    29.100     15
            1  0  0  0    18.750     16
            0  1  0  0    18.750     17
            0  0  1  0    18.750     18
            1  0  0  1    11.250     19
            0  1  0  1    11.250     20
            0  0  1  1    11.250     21
            1  0  0  1     8.100     22
            0  1  0  1     8.100     23
            0  0  1  1     8.100     24
            1  0  0  2     5.950     25
            0  1  0  2     5.950     26
            0  0  1  2     5.950     27
            1  0  0  2     3.950     28
            0  1  0  2     3.950     29
            0  0  1  2     3.950     30
            1  0  0  2     2.700     31
            0  1  0  2     2.700     32
            0  0  1  2     2.700     33
            2  0  0  0    17.550     34
            1  1  0  0    17.550     35
            1  0  1  0    17.550     36
            0  2  0  0    17.550     37
            0  1  1  0    17.550     38
            0  0  2  0    17.550     39
            2  0  0  0    10.450     40
            1  1  0  0    10.450     41
            1  0  1  0    10.450     42
            0  2  0  0    10.450     43
            0  1  1  0    10.450     44
            0  0  2  0    10.450     45
            2  0  0  0     6.900     46
            1  1  0  0     6.900     47
            1  0  1  0     6.900     48
            0  2  0  0     6.900     49
            0  1  1  0     6.900     50
            0  0  2  0     6.900     51
            2  0  0  1     4.250     52
            1  1  0  1     4.250     53
            1  0  1  1     4.250     54
            0  2  0  1     4.250     55
            0  1  1  1     4.250     56
            0  0  2  1     4.250     57
            2  0  0  1     2.200     58
            1  1  0  1     2.200     59
            1  0  1  1     2.200     60
            0  2  0  1     2.200     61
            0  1  1  1     2.200     62
            0  0  2  1     2.200     63
            2  0  0  1     1.100     64
            1  1  0  1     1.100     65
            1  0  1  1     1.100     66
            0  2  0  1     1.100     67
            0  1  1  1     1.100     68
            0  0  2  1     1.100     69
            1  0  0  3     1.450     70
            0  1  0  3     1.450     71
            0  0  1  3     1.450     72

 C                                    2    3    4    5    6    7    8    9   10   11   12   13   14   15
                                  ---------------------------------------------------------------------------
            0  0  0  0     7.680     73   93  113  133  153  173  193  213  233  253  273  293  313  333
            0  0  0  0     5.000     74   94  114  134  154  174  194  214  234  254  274  294  314  334
            0  0  0  1     1.280     75   95  115  135  155  175  195  215  235  255  275  295  315  335
            0  0  0  1     2.100     76   96  116  136  156  176  196  216  236  256  276  296  316  336
            0  0  0  1     4.600     77   97  117  137  157  177  197  217  237  257  277  297  317  337
            1  0  0  0     0.820     78   98  118  138  158  178  198  218  238  258  278  298  318  338
            0  1  0  0     0.820     79   99  119  139  159  179  199  219  239  259  279  299  319  339
            0  0  1  0     0.820     80  100  120  140  160  180  200  220  240  260  280  300  320  340
            1  0  0  0     1.480     81  101  121  141  161  181  201  221  241  261  281  301  321  341
            0  1  0  0     1.480     82  102  122  142  162  182  202  222  242  262  282  302  322  342
            0  0  1  0     1.480     83  103  123  143  163  183  203  223  243  263  283  303  323  343
            1  0  0  0     2.940     84  104  124  144  164  184  204  224  244  264  284  304  324  344
            0  1  0  0     2.940     85  105  125  145  165  185  205  225  245  265  285  305  325  345
            0  0  1  0     2.940     86  106  126  146  166  186  206  226  246  266  286  306  326  346
            2  0  0  0     2.200     87  107  127  147  167  187  207  227  247  267  287  307  327  347
            1  1  0  0     2.200     88  108  128  148  168  188  208  228  248  268  288  308  328  348
            1  0  1  0     2.200     89  109  129  149  169  189  209  229  249  269  289  309  329  349
            0  2  0  0     2.200     90  110  130  150  170  190  210  230  250  270  290  310  330  350
            0  1  1  0     2.200     91  111  131  151  171  191  211  231  251  271  291  311  331  351
            0  0  2  0     2.200     92  112  132  152  172  192  212  232  252  272  292  312  332  352

 H                                   16   17   18   19   20   21   22   23
                                  ---------------------------------------------------------------------------
            0  0  0  0     0.690    353  359  365  371  377  383  389  395
            0  0  0  0     0.920    354  360  366  372  378  384  390  396
            0  0  0  0     1.580    355  361  367  373  379  385  391  397
            1  0  0  0     1.250    356  362  368  374  380  386  392  398
            0  1  0  0     1.250    357  363  369  375  381  387  393  399
            0  0  1  0     1.250    358  364  370  376  382  388  394  400

 N                                   24
                                  ---------------------------------------------------------------------------
            0  0  0  0     8.740    401
            0  0  0  0     5.900    402
            0  0  0  1     5.150    403
            0  0  0  1     2.500    404
            0  0  0  1     1.500    405
            1  0  0  0     3.680    406
            0  1  0  0     3.680    407
            0  0  1  0     3.680    408
            1  0  0  0     1.880    409
            0  1  0  0     1.880    410
            0  0  1  0     1.880    411
            1  0  0  0     1.000    412
            0  1  0  0     1.000    413
            0  0  1  0     1.000    414
            2  0  0  0     2.200    415
            1  1  0  0     2.200    416
            1  0  1  0     2.200    417
            0  2  0  0     2.200    418
            0  1  1  0     2.200    419
            0  0  2  0     2.200    420

 S                                   25
                                  ---------------------------------------------------------------------------
            0  0  0  0    19.400    421
            0  0  0  0    14.350    422
            0  0  0  1     5.900    423
            0  0  0  1     4.250    424
            1  0  0  0     8.050    425
            0  1  0  0     8.050    426
            0  0  1  0     8.050    427
            1  0  0  0     4.550    428
            0  1  0  0     4.550    429
            0  0  1  0     4.550    430
            0  0  0  2     3.450    431
            0  0  0  2     2.250    432
            0  0  0  2     1.500    433
            1  0  0  1     2.650    434
            0  1  0  1     2.650    435
            0  0  1  1     2.650    436
            1  0  0  1     1.600    437
            0  1  0  1     1.600    438
            0  0  1  1     1.600    439
            1  0  0  1     1.000    440
            0  1  0  1     1.000    441
            0  0  1  1     1.000    442
            2  0  0  0     2.100    443
            1  1  0  0     2.100    444
            1  0  1  0     2.100    445
            0  2  0  0     2.100    446
            0  1  1  0     2.100    447
            0  0  2  0     2.100    448

 O                                   26   27   28
                                  ---------------------------------------------------------------------------
            0  0  0  0     9.800    449  469  489
            0  0  0  0     6.800    450  470  490
            0  0  0  1     7.580    451  471  491
            0  0  0  1     2.880    452  472  492
            0  0  0  1     1.720    453  473  493
            1  0  0  0     4.080    454  474  494
            0  1  0  0     4.080    455  475  495
            0  0  1  0     4.080    456  476  496
            1  0  0  0     2.080    457  477  497
            0  1  0  0     2.080    458  478  498
            0  0  1  0     2.080    459  479  499
            1  0  0  0     1.120    460  480  500
            0  1  0  0     1.120    461  481  501
            0  0  1  0     1.120    462  482  502
            2  0  0  0     2.000    463  483  503
            1  1  0  0     2.000    464  484  504
            1  0  1  0     2.000    465  485  505
            0  2  0  0     2.000    466  486  506
            0  1  1  0     2.000    467  487  507
            0  0  2  0     2.000    468  488  508

 Cl                                  29
                                  ---------------------------------------------------------------------------
            0  0  0  0    20.300    509
            0  0  0  0    15.250    510
            0  0  0  1     6.250    511
            0  0  0  1     4.450    512
            1  0  0  0     8.850    513
            0  1  0  0     8.850    514
            0  0  1  0     8.850    515
            1  0  0  0     5.050    516
            0  1  0  0     5.050    517
            0  0  1  0     5.050    518
            0  0  0  2     3.450    519
            0  0  0  2     2.300    520
            0  0  0  2     1.600    521
            1  0  0  1     3.350    522
            0  1  0  1     3.350    523
            0  0  1  1     3.350    524
            1  0  0  1     2.050    525
            0  1  0  1     2.050    526
            0  0  1  1     2.050    527
            1  0  0  1     1.200    528
            0  1  0  1     1.200    529
            0  0  1  1     1.200    530
            2  0  0  0     2.000    531
            1  1  0  0     2.000    532
            1  0  1  0     2.000    533
            0  2  0  0     2.000    534
            0  1  1  0     2.000    535
            0  0  2  0     2.000    536

 F                                   30   31   32   33
                                  ---------------------------------------------------------------------------
            0  0  0  0    10.880    537  557  577  597
            0  0  0  0     7.700    538  558  578  598
            0  0  0  1     3.240    539  559  579  599
            0  0  0  1     1.940    540  560  580  600
            0  0  0  1     0.740    541  561  581  601
            1  0  0  0     4.540    542  562  582  602
            0  1  0  0     4.540    543  563  583  603
            0  0  1  0     4.540    544  564  584  604
            1  0  0  0     2.300    545  565  585  605
            0  1  0  0     2.300    546  566  586  606
            0  0  1  0     2.300    547  567  587  607
            1  0  0  0     1.240    548  568  588  608
            0  1  0  0     1.240    549  569  589  609
            0  0  1  0     1.240    550  570  590  610
            2  0  0  0     2.000    551  571  591  611
            1  1  0  0     2.000    552  572  592  612
            1  0  1  0     2.000    553  573  593  613
            0  2  0  0     2.000    554  574  594  614
            0  1  1  0     2.000    555  575  595  615
            0  0  2  0     2.000    556  576  596  616

 C                                   34   35   36   37   38   39   40   41   42   43   44   45   46
                                  ---------------------------------------------------------------------------
            0  0  0  0     7.680    617  637  657  677  697  717  737  757  777  797  817  837  857
            0  0  0  0     5.000    618  638  658  678  698  718  738  758  778  798  818  838  858
            0  0  0  1     1.280    619  639  659  679  699  719  739  759  779  799  819  839  859
            0  0  0  1     2.100    620  640  660  680  700  720  740  760  780  800  820  840  860
            0  0  0  1     4.600    621  641  661  681  701  721  741  761  781  801  821  841  861
            1  0  0  0     0.820    622  642  662  682  702  722  742  762  782  802  822  842  862
            0  1  0  0     0.820    623  643  663  683  703  723  743  763  783  803  823  843  863
            0  0  1  0     0.820    624  644  664  684  704  724  744  764  784  804  824  844  864
            1  0  0  0     1.480    625  645  665  685  705  725  745  765  785  805  825  845  865
            0  1  0  0     1.480    626  646  666  686  706  726  746  766  786  806  826  846  866
            0  0  1  0     1.480    627  647  667  687  707  727  747  767  787  807  827  847  867
            1  0  0  0     2.940    628  648  668  688  708  728  748  768  788  808  828  848  868
            0  1  0  0     2.940    629  649  669  689  709  729  749  769  789  809  829  849  869
            0  0  1  0     2.940    630  650  670  690  710  730  750  770  790  810  830  850  870
            2  0  0  0     2.200    631  651  671  691  711  731  751  771  791  811  831  851  871
            1  1  0  0     2.200    632  652  672  692  712  732  752  772  792  812  832  852  872
            1  0  1  0     2.200    633  653  673  693  713  733  753  773  793  813  833  853  873
            0  2  0  0     2.200    634  654  674  694  714  734  754  774  794  814  834  854  874
            0  1  1  0     2.200    635  655  675  695  715  735  755  775  795  815  835  855  875
            0  0  2  0     2.200    636  656  676  696  716  736  756  776  796  816  836  856  876

 H                                   47   48   49   50   51   52   53   54   55   56   57   58   59   60   61
                                     62   63   64   65   66   67   68   69   70   71   72   73   74   75
                                  ---------------------------------------------------------------------------
            0  0  0  0     0.690    877  883  889  895  901  907  913  919  925  931  937  943  949  955  961
                                    967  973  979  985  991  997 1003 1009 1015 1021 1027 1033 1039 1045
            0  0  0  0     0.920    878  884  890  896  902  908  914  920  926  932  938  944  950  956  962
                                    968  974  980  986  992  998 1004 1010 1016 1022 1028 1034 1040 1046
            0  0  0  0     1.580    879  885  891  897  903  909  915  921  927  933  939  945  951  957  963
                                    969  975  981  987  993  999 1005 1011 1017 1023 1029 1035 1041 1047
            1  0  0  0     1.250    880  886  892  898  904  910  916  922  928  934  940  946  952  958  964
                                    970  976  982  988  994 1000 1006 1012 1018 1024 1030 1036 1042 1048
            0  1  0  0     1.250    881  887  893  899  905  911  917  923  929  935  941  947  953  959  965
                                    971  977  983  989  995 1001 1007 1013 1019 1025 1031 1037 1043 1049
            0  0  1  0     1.250    882  888  894  900  906  912  918  924  930  936  942  948  954  960  966
                                    972  978  984  990  996 1002 1008 1014 1020 1026 1032 1038 1044 1050

 P                                   76
                                  ---------------------------------------------------------------------------
            0  0  0  0    18.000   1051
            0  0  0  0    13.350   1052
            0  0  0  1     5.600   1053
            0  0  0  1     4.050   1054
            1  0  0  0     7.450   1055
            0  1  0  0     7.450   1056
            0  0  1  0     7.450   1057
            1  0  0  0     4.100   1058
            0  1  0  0     4.100   1059
            0  0  1  0     4.100   1060
            0  0  0  2     2.700   1061
            0  0  0  2     1.850   1062
            0  0  0  2     1.300   1063
            1  0  0  1     2.300   1064
            0  1  0  1     2.300   1065
            0  0  1  1     2.300   1066
            1  0  0  1     1.350   1067
            0  1  0  1     1.350   1068
            0  0  1  1     1.350   1069
            1  0  0  1     0.850   1070
            0  1  0  1     0.850   1071
            0  0  1  1     0.850   1072
            2  0  0  0     1.900   1073
            1  1  0  0     1.900   1074
            1  0  1  0     1.900   1075
            0  2  0  0     1.900   1076
            0  1  1  0     1.900   1077
            0  0  2  0     1.900   1078

 Total number of charge fitting functions (nprimf)      5349
 Total number of Cartesian basis functions (naos)       1078
 Total number of Cartesian core functions  (ncos)          0

1
 ***************************************************************************************************



                                              ***********************
                                              *  T E C H N I C A L  *
                                              ***********************
  



 =============================================================
 P A R A L L E L I Z A T I O N  and  V E C T O R I Z A T I O N
 =============================================================
  
 Nr of parallel processes:                               16
 Maximum vector length in NumInt loops:                 128



 =====================
 S C F   U P D A T E S
 =====================
  
 Max. nr. of cycles:                               300
 Convergence criterion:                              0.0000010000
   secondary criterion:                              0.0010000000

 Mix parameter (when DIIS does not apply):           0.2000000000
 Mixed ADIIS+SDIIS will be used                  
    Max number of expansion vectors:                10
    Pure ADIIS when Max([F,P]) is above              0.1000000000
    Pure SDIIS when Max([F,P]) is below              0.0010000000
 Automatic ElectronSmearing (in case of problematic SCF convergence) disabled



 =================
 P R E C I S I O N  ***  (General: NumInt, NeglectFunctionTails, ...)  ***
 =================
  

 NumInt:           Target precision:                 8.0000000000
 -------           Initial precision:                8.0000000000
                   Min. precision (optimization):    8.0000000000

 Neglect Functions:          Basis functions:        0.1000000000E-09
 ------------------          Fit functions:          0.1000000000E-09



 ===========================
 L I N E A R   S C A L I N G
 ===========================
  

 Cut-off radii density fit:                        0.1000000000E-11
 Overlap cut-off criterion AO matrix elements:     0.1000000000E-09
 Cut-offs for Coulomb potential and fitted density:0.1000000000E-11
 Cut-off criterion for Coulomb multipole terms:    0.1000000000E-11
 Progressive Convergence parameter:                 0.000000000    
1
 ***************************************************************************************************



                                            ***************************
                                            *  C O M P U T A T I O N  *
                                            ***************************
  

 Number of elements of the density matrix on this node (used, total):     36845    581581



 ===========================================
 Numerical Integration : Fuzzy Cells (Becke)
 ===========================================
  
 Becke grid quality: VERYGOOD       
  
 Lebedev angular grid order:             min:  13 max:  47
 Nr. of radial points:                   min:  64 max: 183

 Total nr. of points:    1839636
 Nr. of blocks:            14373
 Block length:               128
 Nr. of dummy points:        108


 Test of Precision of the Numerical Integration Grid
 ===================================================

 Integral of the Total Core Density:                   0.00000000000000



 ========================
 Density Fitting (zlmFit)
 ========================
  
 ZlmFit Fit Quality: VERYGOOD       
  
 Max L-expansion:                        min:   9 max:  11
 Nr. of radial interpolation points:     min: 120 max: 400



 ======================
 RI Hartree-Fock Scheme
 ======================
  
 Fit Set Quality     : VERYGOOD
 Threshold Quality   : VERYGOOD
 Integration Quality : VERYGOOD
 Fit Generation Method : AUTO
 Response Quality    : DEFAULT
 Is Range Separated  :  F
 
 RIHartreeFock Dependency: number of modified vectors:          66



 =====
 S C F  ***  ScaSCF  ***
 =====
  
 Initial density matrix is calculated as sum of fragments

 CYCLE    1
 SCF Error: norm([F,P])=      3.860588189903, max([F,P])=      2.107690664982
 orbitals (Q,E):
 ---------------
 A :171...190        ( 2.00    -0.3103)  ( 2.00    -0.3063)  ( 2.00    -0.3005)  ( 2.00    -0.2932)
                     ( 2.00    -0.2864)  ( 2.00    -0.2752)  ( 2.00    -0.2647)  ( 2.00    -0.2562)
                     ( 2.00    -0.2422)  ( 2.00    -0.2312)  ( 0.00    -0.0659)  ( 0.00    -0.0552)
                     ( 0.00    -0.0272)  ( 0.00    -0.0145)  ( 0.00    -0.0070)  ( 0.00    -0.0044)
                     ( 0.00     0.0036)  ( 0.00     0.0065)  ( 0.00     0.0118)  ( 0.00     0.0143)

 CYCLE    2
   MIX coefficients:  0.8000  0.2000
 SCF Error: norm([F,P])=      0.320319713864, max([F,P])=      0.042222481525
 orbitals (Q,E):
 ---------------
 A :171...181        ( 2.00    -0.3117)  ( 2.00    -0.3055)  ( 2.00    -0.3038)  ( 2.00    -0.2975)
                     ( 2.00    -0.2873)  ( 2.00    -0.2810)  ( 2.00    -0.2627)  ( 2.00    -0.2594)
                     ( 2.00    -0.2437)  ( 2.00    -0.2301)  ( 0.00    -0.0690)

 CYCLE    3
  SDIIS (wt  0.000): -0.3770  1.3770
 A-DIIS (wt  1.000):  0.0000  1.0000
  DIIS coefficients:  0.0000  1.0000
 SCF Error: norm([F,P])=      0.110641182573, max([F,P])=      0.017901990431
 orbitals (Q,E):
 ---------------
 A :171...181        ( 2.00    -0.3091)  ( 2.00    -0.3041)  ( 2.00    -0.2922)  ( 2.00    -0.2883)
                     ( 2.00    -0.2787)  ( 2.00    -0.2743)  ( 2.00    -0.2627)  ( 2.00    -0.2467)
                     ( 2.00    -0.2309)  ( 2.00    -0.2213)  ( 0.00    -0.0660)

 CYCLE    4
  SDIIS (wt  0.000):  0.4432 -0.0832  0.6399
 A-DIIS (wt  1.000):  0.0000  0.6492  0.3508
  DIIS coefficients:  0.0000  0.6492  0.3508
 SCF Error: norm([F,P])=      0.210493736827, max([F,P])=      0.024070698958
 orbitals (Q,E):
 ---------------
 A :171...181        ( 2.00    -0.3068)  ( 2.00    -0.2992)  ( 2.00    -0.2945)  ( 2.00    -0.2882)
                     ( 2.00    -0.2782)  ( 2.00    -0.2751)  ( 2.00    -0.2558)  ( 2.00    -0.2495)
                     ( 2.00    -0.2338)  ( 2.00    -0.2231)  ( 0.00    -0.0605)

 CYCLE    5
  SDIIS (wt  0.917): -0.5025  0.7964 -0.2121  0.9183
 A-DIIS (wt  0.083):  0.0000  0.0000  0.0183  0.9817
  DIIS coefficients: -0.4608  0.7303 -0.1930  0.9236
 SCF Error: norm([F,P])=      0.058782269926, max([F,P])=      0.009213185793
 orbitals (Q,E):
 ---------------
 A :171...181        ( 2.00    -0.3101)  ( 2.00    -0.3037)  ( 2.00    -0.2963)  ( 2.00    -0.2903)
                     ( 2.00    -0.2811)  ( 2.00    -0.2780)  ( 2.00    -0.2605)  ( 2.00    -0.2509)
                     ( 2.00    -0.2355)  ( 2.00    -0.2249)  ( 0.00    -0.0642)

 CYCLE    6
  SDIIS (wt  1.000): -0.1911  0.2386 -0.1198  0.4006  0.6717
 A-DIIS (wt  0.000):  0.0000  0.0000  0.0000  0.0000  1.0000
  DIIS coefficients: -0.1910  0.2385 -0.1198  0.4005  0.6719
 SCF Error: norm([F,P])=      0.013523820318, max([F,P])=      0.001036454023
 orbitals (Q,E):
 ---------------
 A :171...181        ( 2.00    -0.3093)  ( 2.00    -0.3027)  ( 2.00    -0.2958)  ( 2.00    -0.2897)
                     ( 2.00    -0.2805)  ( 2.00    -0.2775)  ( 2.00    -0.2595)  ( 2.00    -0.2505)
                     ( 2.00    -0.2354)  ( 2.00    -0.2244)  ( 0.00    -0.0633)

 CYCLE    7
  SDIIS (wt  1.000):  0.0073 -0.0401 -0.0047  0.0408  0.4415  0.5552
  DIIS coefficients:  0.0073 -0.0401 -0.0047  0.0408  0.4415  0.5552
 SCF Error: norm([F,P])=      0.007406414406, max([F,P])=      0.000641374444
 orbitals (Q,E):
 ---------------
 A :171...181        ( 2.00    -0.3094)  ( 2.00    -0.3027)  ( 2.00    -0.2957)  ( 2.00    -0.2896)
                     ( 2.00    -0.2804)  ( 2.00    -0.2774)  ( 2.00    -0.2595)  ( 2.00    -0.2503)
                     ( 2.00    -0.2351)  ( 2.00    -0.2242)  ( 0.00    -0.0634)

 CYCLE    8
  SDIIS (wt  1.000):  0.0165 -0.0369  0.0061 -0.0078  0.1773  0.2909  0.5539
  DIIS coefficients:  0.0165 -0.0369  0.0061 -0.0078  0.1773  0.2909  0.5539
 SCF Error: norm([F,P])=      0.001744842381, max([F,P])=      0.000294809829
 orbitals (Q,E):
 ---------------
 A :171...181        ( 2.00    -0.3094)  ( 2.00    -0.3028)  ( 2.00    -0.2958)  ( 2.00    -0.2897)
                     ( 2.00    -0.2805)  ( 2.00    -0.2775)  ( 2.00    -0.2596)  ( 2.00    -0.2504)
                     ( 2.00    -0.2351)  ( 2.00    -0.2243)  ( 0.00    -0.0635)

 CYCLE    9
  SDIIS (wt  1.000):  0.0072 -0.0139  0.0028 -0.0117  0.0248  0.0765  0.3593  0.5548
  DIIS coefficients:  0.0072 -0.0139  0.0028 -0.0117  0.0248  0.0765  0.3593  0.5548
 SCF Error: norm([F,P])=      0.000901274586, max([F,P])=      0.000101510605
 orbitals (Q,E):
 ---------------
 A :171...181        ( 2.00    -0.3094)  ( 2.00    -0.3028)  ( 2.00    -0.2958)  ( 2.00    -0.2897)
                     ( 2.00    -0.2805)  ( 2.00    -0.2775)  ( 2.00    -0.2596)  ( 2.00    -0.2503)
                     ( 2.00    -0.2351)  ( 2.00    -0.2243)  ( 0.00    -0.0635)

 CYCLE   10
  SDIIS (wt  1.000): -0.0004  0.0011 -0.0008 -0.0042 -0.0250 -0.0162  0.1035  0.3361  0.6059
  DIIS coefficients: -0.0004  0.0011 -0.0008 -0.0042 -0.0250 -0.0162  0.1035  0.3361  0.6059
 SCF Error: norm([F,P])=      0.000379134111, max([F,P])=      0.000052417890
 orbitals (Q,E):
 ---------------
 A :171...181        ( 2.00    -0.3094)  ( 2.00    -0.3028)  ( 2.00    -0.2958)  ( 2.00    -0.2897)
                     ( 2.00    -0.2805)  ( 2.00    -0.2775)  ( 2.00    -0.2596)  ( 2.00    -0.2503)
                     ( 2.00    -0.2351)  ( 2.00    -0.2243)  ( 0.00    -0.0635)

 CYCLE   11
  SDIIS (wt  1.000): -0.0018  0.0034 -0.0012 -0.0001 -0.0191 -0.0229 -0.0090  0.0969  0.3727  0.5812
  DIIS coefficients: -0.0018  0.0034 -0.0012 -0.0001 -0.0191 -0.0229 -0.0090  0.0969  0.3727  0.5812
 SCF Error: norm([F,P])=      0.000168313873, max([F,P])=      0.000022542328
 orbitals (Q,E):
 ---------------
 A :171...181        ( 2.00    -0.3094)  ( 2.00    -0.3028)  ( 2.00    -0.2958)  ( 2.00    -0.2897)
                     ( 2.00    -0.2805)  ( 2.00    -0.2775)  ( 2.00    -0.2596)  ( 2.00    -0.2503)
                     ( 2.00    -0.2351)  ( 2.00    -0.2243)  ( 0.00    -0.0635)

 CYCLE   12
  SDIIS (wt  1.000):  0.0004  0.0001 -0.0006 -0.0054 -0.0067 -0.0174  0.0052  0.1006  0.3214  0.6025
  DIIS coefficients:  0.0004  0.0001 -0.0006 -0.0054 -0.0067 -0.0174  0.0052  0.1006  0.3214  0.6025
 SCF Error: norm([F,P])=      0.000068691624, max([F,P])=      0.000008314548
 orbitals (Q,E):
 ---------------
 A :171...181        ( 2.00    -0.3094)  ( 2.00    -0.3028)  ( 2.00    -0.2958)  ( 2.00    -0.2897)
                     ( 2.00    -0.2805)  ( 2.00    -0.2775)  ( 2.00    -0.2596)  ( 2.00    -0.2503)
                     ( 2.00    -0.2351)  ( 2.00    -0.2243)  ( 0.00    -0.0635)

 CYCLE   13
  SDIIS (wt  1.000):  0.0000  0.0003  0.0010 -0.0000 -0.0127 -0.0180 -0.0023  0.1114  0.3956  0.5248
  DIIS coefficients:  0.0000  0.0003  0.0010 -0.0000 -0.0127 -0.0180 -0.0023  0.1114  0.3956  0.5248
 SCF Error: norm([F,P])=      0.000040285325, max([F,P])=      0.000003959146
 orbitals (Q,E):
 ---------------
 A :171...181        ( 2.00    -0.3094)  ( 2.00    -0.3028)  ( 2.00    -0.2958)  ( 2.00    -0.2897)
                     ( 2.00    -0.2805)  ( 2.00    -0.2775)  ( 2.00    -0.2596)  ( 2.00    -0.2503)
                     ( 2.00    -0.2351)  ( 2.00    -0.2243)  ( 0.00    -0.0635)

 CYCLE   14
  SDIIS (wt  1.000):  0.0001  0.0003  0.0001 -0.0035 -0.0072 -0.0100  0.0122  0.0961  0.2541  0.6579
[...]
     450       26.0869         0.000       
     449       25.9234         0.000       
     448       25.8461         0.000       
     447       25.6828         0.000       
     446       25.5277         0.000       
     445       25.2467         0.000       
     444       25.0760         0.000       
     443       25.0116         0.000       
     442       24.9358         0.000       
     441       24.7664         0.000       
     440       24.6417         0.000       
     439       24.5779         0.000       
     438       24.4212         0.000       
     437       24.2976         0.000       
     436       24.1718         0.000       
     435       24.1117         0.000       
     434       23.8367         0.000       
     433       23.7485         0.000       
     432       23.5116         0.000       
     431       23.4302         0.000       
     430       23.4107         0.000       
     429       23.1435         0.000       
     428       22.9693         0.000       
     427       22.9410         0.000       
     426       22.6764         0.000       
     425       22.5270         0.000       
     424       22.4750         0.000       
     423       22.2857         0.000       
     422       22.2251         0.000       
     421       21.8869         0.000       
     420       21.7082         0.000       
     419       21.5755         0.000       
     418       21.5604         0.000       
     417       21.4657         0.000       
     416       21.3768         0.000       
     415       21.1317         0.000       
     414       21.0144         0.000       
     413       20.9823         0.000       
     412       20.8747         0.000       
     411       20.7290         0.000       
     410       20.5242         0.000       
     409       20.4748         0.000       
     408       20.3477         0.000       
     407       20.2841         0.000       
     406       20.1828         0.000       
     405       19.9362         0.000       
     404       19.8444         0.000       
     403       19.5964         0.000       
     402       19.5336         0.000       
     401       19.3642         0.000       
     400       19.3165         0.000       
     399       19.2713         0.000       
     398       19.2373         0.000       
     397       19.1214         0.000       
     396       19.0344         0.000       
     395       18.9733         0.000       
     394       18.7852         0.000       
     393       18.6805         0.000       
     392       18.5262         0.000       
     391       18.3991         0.000       
     390       18.2432         0.000       
     389       18.0734         0.000       
     388       17.9022         0.000       
     387       17.8819         0.000       
     386       17.7616         0.000       
     385       17.6258         0.000       
     384       17.4795         0.000       
     383       17.2251         0.000       
     382       17.2087         0.000       
     381       17.1458         0.000       
     380       16.9825         0.000       
     379       16.9531         0.000       
     378       16.8681         0.000       
     377       16.7948         0.000       
     376       16.6387         0.000       
     375       16.5456         0.000       
     374       16.5345         0.000       
     373       16.3754         0.000       
     372       16.3374         0.000       
     371       16.1891         0.000       
     370       16.0927         0.000       
     369       16.0403         0.000       
     368       15.9244         0.000       
     367       15.8084         0.000       
     366       15.7471         0.000       
     365       15.7187         0.000       
     364       15.5248         0.000       
     363       15.4324         0.000       
     362       15.3312         0.000       
     361       15.1968         0.000       
     360       15.1394         0.000       
     359       14.9919         0.000       
     358       14.8818         0.000       
     357       14.8499         0.000       
     356       14.7893         0.000       
     355       14.6781         0.000       
     354       14.6030         0.000       
     353       14.2984         0.000       
     352       14.2010         0.000       
     351       14.0690         0.000       
     350       14.0004         0.000       
     349       13.9043         0.000       
     348       13.7459         0.000       
     347       13.6840         0.000       
     346       13.5757         0.000       
     345       13.5557         0.000       
     344       13.4884         0.000       
     343       13.4206         0.000       
     342       13.4063         0.000       
     341       13.3222         0.000       
     340       13.0523         0.000       
     339       13.0398         0.000       
     338       12.9713         0.000       
     337       12.8421         0.000       
     336       12.7742         0.000       
     335       12.6559         0.000       
     334       12.5815         0.000       
     333       12.4508         0.000       
     332       12.4008         0.000       
     331       12.3371         0.000       
     330       12.2896         0.000       
     329       12.2644         0.000       
     328       12.1515         0.000       
     327       12.0373         0.000       
     326       12.0122         0.000       
     325       11.9014         0.000       
     324       11.8624         0.000       
     323       11.7817         0.000       
     322       11.7140         0.000       
     321       11.6987         0.000       
     320       11.5594         0.000       
     319       11.4603         0.000       
     318       11.3607         0.000       
     317       11.3085         0.000       
     316       11.2632         0.000       
     315       11.1041         0.000       
     314       11.0626         0.000       
     313       11.0056         0.000       
     312       10.9436         0.000       
     311       10.8522         0.000       
     310       10.7829         0.000       
     309       10.6731         0.000       
     308       10.5581         0.000       
     307       10.4904         0.000       
     306       10.4161         0.000       
     305       10.3746         0.000       
     304       10.2704         0.000       
     303       10.1625         0.000       
     302       10.0353         0.000       
     301       10.0064         0.000       
     300        9.9019         0.000       
     299        9.8700         0.000       
     298        9.7348         0.000       
     297        9.6509         0.000       
     296        9.5937         0.000       
     295        9.4984         0.000       
     294        9.4293         0.000       
     293        9.2561         0.000       
     292        9.2213         0.000       
     291        9.0300         0.000       
     290        8.9430         0.000       
     289        8.8558         0.000       
     288        8.7142         0.000       
     287        8.5910         0.000       
     286        8.5112         0.000       
     285        8.4397         0.000       
     284        8.3824         0.000       
     283        8.3487         0.000       
     282        8.2542         0.000       
     281        8.1230         0.000       
     280        8.0098         0.000       
     279        7.9518         0.000       
     278        7.8912         0.000       
     277        7.8703         0.000       
     276        7.7598         0.000       
     275        7.6053         0.000       
     274        7.5509         0.000       
     273        7.5015         0.000       
     272        7.3732         0.000       
     271        7.2354         0.000       
     270        7.2040         0.000       
     269        7.1261         0.000       
     268        7.0800         0.000       
     267        6.9992         0.000       
     266        6.9667         0.000       
     265        6.8879         0.000       
     264        6.7455         0.000       
     263        6.6177         0.000       
     262        6.5243         0.000       
     261        6.4301         0.000       
     260        6.3016         0.000       
     259        6.1918         0.000       
     258        6.0368         0.000       
     257        5.9072         0.000       
     256        5.8566         0.000       
     255        5.7176         0.000       
     254        5.6806         0.000       
     253        5.5654         0.000       
     252        5.4779         0.000       
     251        5.3809         0.000       
     250        5.3143         0.000       
     249        5.2194         0.000       
     248        5.2129         0.000       
     247        5.0564         0.000       
     246        4.9758         0.000       
     245        4.9394         0.000       
     244        4.9110         0.000       
     243        4.8591         0.000       
     242        4.6962         0.000       
     241        4.5392         0.000       
     240        4.5217         0.000       
     239        4.4883         0.000       
     238        4.3607         0.000       
     237        4.2540         0.000       
     236        4.2009         0.000       
     235        4.1856         0.000       
     234        4.0719         0.000       
     233        4.0365         0.000       
     232        3.8669         0.000       
     231        3.8484         0.000       
     230        3.8049         0.000       
     229        3.7113         0.000       
     228        3.6736         0.000       
     227        3.5929         0.000       
     226        3.5575         0.000       
     225        3.4852         0.000       
     224        3.4037         0.000       
     223        3.2898         0.000       
     222        3.1986         0.000       
     221        3.0575         0.000       
     220        3.0452         0.000       
     219        2.9681         0.000       
     218        2.8943         0.000       
     217        2.8438         0.000       
     216        2.7469         0.000       
     215        2.7122         0.000       
     214        2.5985         0.000       
     213        2.4785         0.000       
     212        2.4160         0.000       
     211        2.3258         0.000       
     210        2.2280         0.000       
     209        2.1937         0.000       
     208        2.1518         0.000       
     207        2.0149         0.000       
     206        1.9525         0.000       
     205        1.8947         0.000       
     204        1.8454         0.000       
     203        1.7352         0.000       
     202        1.6074         0.000       
     201        1.4985         0.000       
     200        1.4579         0.000       
     199        1.3470         0.000       
     198        1.3004         0.000       
     197        1.1620         0.000       
     196        1.0741         0.000       
     195        0.9514         0.000       
     194        0.8721         0.000       
     193        0.7798         0.000       
     192        0.6926         0.000       
     191        0.5644         0.000       
     190        0.4769         0.000       
     189        0.3800         0.000       
     188        0.2758         0.000       
     187        0.1373         0.000       
     186        0.0814         0.000       
     185       -0.0173         0.000       
     184       -0.2076         0.000       
     183       -0.4307         0.000       
     182       -1.1853         0.000       
     181       -1.7274         0.000 < LUMO
     180       -6.1023         2.000 < HOMO
     179       -6.3978         2.000       
     178       -6.8122         2.000       
     177       -7.0642         2.000       
     176       -7.5502         2.000       
     175       -7.6318         2.000       
     174       -7.8826         2.000       
     173       -8.0482         2.000       
     172       -8.2386         2.000       
     171       -8.4193         2.000       
     170       -8.4640         2.000       
     169       -8.6055         2.000       
     168       -8.8231         2.000       
     167       -8.9959         2.000       
     166       -9.1145         2.000       
     165       -9.2648         2.000       
     164       -9.3418         2.000       
     163       -9.4083         2.000       
     162       -9.5217         2.000       
     161       -9.5490         2.000       
     160       -9.7297         2.000       
     159       -9.7902         2.000       
     158       -9.9404         2.000       
     157       -9.9575         2.000       
     156      -10.0948         2.000       
     155      -10.1623         2.000       
     154      -10.2072         2.000       
     153      -10.3842         2.000       
     152      -10.5207         2.000       
     151      -10.6742         2.000       
     150      -10.7247         2.000       
     149      -10.7531         2.000       
     148      -10.7777         2.000       
     147      -10.9441         2.000       
     146      -11.0485         2.000       
     145      -11.1616         2.000       
     144      -11.2145         2.000       
     143      -11.2552         2.000       
     142      -11.3700         2.000       
     141      -11.5342         2.000       
     140      -11.6441         2.000       
     139      -11.6942         2.000       
     138      -11.7474         2.000       
     137      -11.8468         2.000       
     136      -11.9410         2.000       
     135      -12.0514         2.000       
     134      -12.0951         2.000       
     133      -12.2553         2.000       
     132      -12.3931         2.000       
     131      -12.6093         2.000       
     130      -12.7056         2.000       
     129      -12.7335         2.000       
     128      -12.8116         2.000       
     127      -12.9205         2.000       
     126      -12.9672         2.000       
     125      -13.0648         2.000       
     124      -13.1411         2.000       
     123      -13.2121         2.000       
     122      -13.2462         2.000       
     121      -13.3391         2.000       
     120      -13.3913         2.000       
     119      -13.3964         2.000       
     118      -13.5471         2.000       
     117      -13.5735         2.000       
     116      -13.6997         2.000       
     115      -13.7631         2.000       
     114      -13.8128         2.000       
     113      -14.1123         2.000       
     112      -14.2707         2.000       
     111      -14.5266         2.000       
     110      -14.8287         2.000       
     109      -15.0075         2.000       
     108      -15.0859         2.000       
     107      -15.1900         2.000       
     106      -15.6299         2.000       
     105      -15.8720         2.000       
     104      -16.0721         2.000       
     103      -16.1755         2.000       
     102      -16.2308         2.000       
     101      -16.8485         2.000       
     100      -17.0083         2.000       
      99      -17.3624         2.000       
      98      -18.1468         2.000       
      97      -18.5226         2.000       
      96      -18.6148         2.000       
      95      -19.6329         2.000       
      94      -19.6885         2.000       
      93      -19.7554         2.000       
      92      -19.8886         2.000       
      91      -19.9188         2.000       
      90      -19.9949         2.000       
      89      -20.0342         2.000       
      88      -20.1512         2.000       
      87      -20.7111         2.000       
      86      -20.9594         2.000       
      85      -21.3119         2.000       
      84      -21.4172         2.000       
      83      -22.4069         2.000       
      82      -23.4488         2.000       
      81      -23.7498         2.000       
      80      -24.1238         2.000       
      79      -24.1900         2.000       
      78      -24.2752         2.000       
      77      -24.5061         2.000       
      76      -26.0320         2.000       
      75      -27.6679         2.000       
      74      -30.3281         2.000       
      73      -30.6859         2.000       
      72      -34.6192         2.000       
      71      -34.8119         2.000       
      70      -35.0837         2.000       
      69      -35.3358         2.000       
      68      -58.0775         2.000       
      67      -58.8665         2.000       
      66      -59.0026         2.000       
      65      -94.0577         2.000       
      64     -129.9489         2.000       
      63     -130.0127         2.000       
      62     -130.0229         2.000       
      61     -165.4389         2.000       
      60     -165.4534         2.000       
      59     -165.4775         2.000       
      58     -181.8052         2.000       
      57     -197.1241         2.000       
      56     -197.1371         2.000       
      55     -197.4139         2.000       
      54     -223.0007         2.000       
      53     -260.7699         2.000       
      52     -278.4513         2.000       
      51     -278.4614         2.000       
      50     -278.5818         2.000       
      49     -278.6456         2.000       
      48     -278.6566         2.000       
      47     -278.7135         2.000       
      46     -278.7679         2.000       
      45     -278.7750         2.000       
      44     -278.8073         2.000       
      43     -278.8192         2.000       
      42     -278.8667         2.000       
      41     -278.8890         2.000       
      40     -279.1596         2.000       
      39     -279.2173         2.000       
      38     -279.2732         2.000       
      37     -279.3368         2.000       
      36     -279.5629         2.000       
      35     -279.8521         2.000       
      34     -279.8834         2.000       
      33     -279.9515         2.000       
      32     -280.1264         2.000       
      31     -280.2443         2.000       
      30     -280.3684         2.000       
      29     -281.0497         2.000       
      28     -281.2237         2.000       
      27     -281.2427         2.000       
      26     -281.2860         2.000       
      25     -338.3299         2.000       
      24     -338.3750         2.000       
      23     -338.4339         2.000       
      22     -338.6135         2.000       
      21     -338.6184         2.000       
      20     -391.9150         2.000       
      19     -522.4062         2.000       
      18     -522.4719         2.000       
      17     -524.1082         2.000       
      16     -532.1320         2.000       
      15     -532.4636         2.000       
      14     -532.5474         2.000       
      13     -654.2174         2.000       
      12     -675.0640         2.000       
      11     -675.4154         2.000       
      10     -675.4548         2.000       
       9     -675.4708         2.000       
       8    -2107.8854         2.000       
       7    -2434.7980         2.000       
       6    -2776.9937         2.000       
       5    -3190.3268         2.000       
       4    -3190.4701         2.000       
       3    -3190.4963         2.000       
       2    -3561.3812         2.000       
       1   -24224.5220         2.000       

AMS application finished. Exiting.
NORMAL TERMINATION
     Total cpu time:    2398.89
  Total system time:      31.52
 Total elapsed time:    2440.56
NORMAL TERMINATION
