

 Parallel Execution: Process Information
 ==============================================================================
 Rank   Node Name                              NodeID   MyNodeRank  NodeMaster
    0   eu-g5-002-4                               0          0          0
    1   eu-g5-002-4                               1          0          1
    2   eu-g5-002-4                               0          1         -1
    3   eu-g5-002-4                               1          1         -1
    4   eu-g5-002-4                               0          2         -1
    5   eu-g5-002-4                               2          0          2
    6   eu-g5-002-4                               0          3         -1
    7   eu-g5-002-4                               2          1         -1
    8   eu-g5-002-4                               0          4         -1
    9   eu-g5-002-4                               2          2         -1
   10   eu-g5-002-4                               0          5         -1
   11   eu-g5-002-4                               2          3         -1
   12   eu-g5-002-4                               0          6         -1
   13   eu-g5-002-4                               2          4         -1
   14   eu-g5-002-4                               0          7         -1
   15   eu-g5-002-4                               2          5         -1
 ==============================================================================


May use up to 30549MB of RAM as shared memory on node 0
May use up to 30759MB of RAM as shared memory on node 2
May use up to 30759MB of RAM as shared memory on node 1

 *******************************************************************************
 *                                                                             *
 *  --------------------------------                                           *
 *   Amsterdam Modeling Suite (AMS)              2023.101                      *
 *  --------------------------------                                           *
 *                                               r111868 2023-03-31            *
 *                                                                             *
 *                                                                             *
 *                              =================                              *
 *                              |               |                              *
 *                              |     A M S     |                              *
 *                              |               |                              *
 *                              =================                              *
 *                                                                             *
 *                                                                             *
 *   Online information and documentation:  https://www.scm.com/support/       *
 *   E-mail:  support@scm.com   info@scm.com                                   *
 *                                                                             *
 *   Scientific publications using AMS results must be properly referenced     *
 *   See the User Manuals (or the web site) for recommended citations          *
 *   The terms and conditions of the End User License Agreement apply to       *
 *   the use of AMS, https://www.scm.com/license-terms/                        *
 *                                                                             *
 ***********************  x86_64_linux_intel / openmpi  ************************
 
 Licensed to: D-CHAB / ETH site license / Zurich / Switzerland 2023-06-23 15:55:12
 SCM User ID: u7035
  
 AMS 2023.101  RunTime: May25-2024 09:19:20  ShM Nodes: 3  Procs: 16

 AMS jobname: gs_pad2nbu
 AMS jobid  : 660665859

 Start   directory: /cluster/scratch/sroediger/michael/eda/
 Results directory: /cluster/scratch/sroediger/michael/eda/gs_pad2nbu.results/
 Scratch directory: /scratch/amstmp_gs_pad2nbu_kid0.660665859/


 Communication costs MPI_COMM_WORLD:      7.636 usec per message,   0.0189 usec per 8-byte item
 Communication costs for intra-node:      3.650 usec per message,   0.0143 usec per 8-byte item

 RNG seed: 2088652434 1733807304 267705347 -385506105 -721974011 475228220 640226498 1763891832



                     *************************************************************************
                     *  ADF 2023.101  RunTime: May25-2024 09:19:20  ShM Nodes: 3  Procs: 16  *
                     *************************************************************************
  

       ****************************
       * SINGLE POINT CALCULATION *
       ****************************
 
--------
Geometry
--------
Formula: C38H47ClF4NO3PPdS
Atoms
  Index Symbol   x (angstrom)   y (angstrom)   z (angstrom)
      1     Pd     0.06860200    -0.61295400     0.28168300       region=pdsubstrate adf.f=pdsubstrate
      2      C     1.20237400     0.52696800     1.41696900       region=pdsubstrate adf.f=pdsubstrate
      3      C     0.71458600     0.98674100     2.64586100       region=pdsubstrate adf.f=pdsubstrate
      4      H    -0.30739300     0.75408600     2.94401700       region=pdsubstrate adf.f=pdsubstrate
      5      C     1.50645000     1.71813800     3.51929000       region=pdsubstrate adf.f=pdsubstrate
      6      H     1.12029200     2.07570300     4.47579600       region=pdsubstrate adf.f=pdsubstrate
      7      C     2.83439700     1.99809000     3.17966000       region=pdsubstrate adf.f=pdsubstrate
      8      C     3.34447200     1.51871700     1.97518500       region=pdsubstrate adf.f=pdsubstrate
      9      H     4.38477300     1.70039600     1.71602000       region=pdsubstrate adf.f=pdsubstrate
     10      C     2.54611500     0.77854400     1.07964000       region=pdsubstrate adf.f=pdsubstrate
     11      C     3.17725000     0.24561200    -0.14945800       region=pdsubstrate adf.f=pdsubstrate
     12      C     4.15557900     0.95628000    -0.85199100       region=pdsubstrate adf.f=pdsubstrate
     13      C     4.80027100     0.42468500    -1.96465100       region=pdsubstrate adf.f=pdsubstrate
     14      C     4.45206400    -0.84373600    -2.41701800       region=pdsubstrate adf.f=pdsubstrate
     15      C     3.44490000    -1.55254000    -1.77105700       region=pdsubstrate adf.f=pdsubstrate
     16      C     2.81396100    -1.03696000    -0.63190600       region=pdsubstrate adf.f=pdsubstrate
     17      N     1.73119800    -1.70297600    -0.07703600       region=pdsubstrate adf.f=pdsubstrate
     18      S     1.81267600    -3.20329900     0.53066900       region=pdsubstrate adf.f=pdsubstrate
     19      O     0.57567300    -3.90432000     0.19291500       region=pdsubstrate adf.f=pdsubstrate
     20      O     3.11792600    -3.80735500     0.28519800       region=pdsubstrate adf.f=pdsubstrate
     21      C     1.78820800    -2.99640400     2.33780000       region=pdsubstrate adf.f=pdsubstrate
     22     Cl     0.20722200    -2.57157500     3.00025500       region=pdsubstrate adf.f=pdsubstrate
     23      H     2.51848100    -2.21867700     2.59629600       region=pdsubstrate adf.f=pdsubstrate
     24      H     2.09228500    -3.97200500     2.73895400       region=pdsubstrate adf.f=pdsubstrate
     25      F     3.05156900    -2.70101800    -2.29463800       region=pdsubstrate adf.f=pdsubstrate
     26      F     5.03502700    -1.34100900    -3.49480200       region=pdsubstrate adf.f=pdsubstrate
     27      F     5.72730400     1.12668900    -2.60043200       region=pdsubstrate adf.f=pdsubstrate
     28      F     4.50747800     2.19140500    -0.49158300       region=pdsubstrate adf.f=pdsubstrate
     29      O     3.54812100     2.71702400     4.07197200       region=pdsubstrate adf.f=pdsubstrate
     30      C     4.88188100     3.02108000     3.77525600       region=pdsubstrate adf.f=pdsubstrate
     31      H     5.50119200     2.11127200     3.68109900       region=pdsubstrate adf.f=pdsubstrate
     32      H     5.26173800     3.62179500     4.61146600       region=pdsubstrate adf.f=pdsubstrate
     33      H     4.97310400     3.60640900     2.84306300       region=pdsubstrate adf.f=pdsubstrate
     34      P    -1.87590200     0.57222400     0.20409300       region=ligand adf.f=ligand
     35      C    -2.90149900    -0.87460500    -0.42067800       region=ligand adf.f=ligand
     36      C    -1.69750100     1.99087100    -0.99998700       region=ligand adf.f=ligand
     37      C    -2.64986000     1.20193900     1.74856300       region=ligand adf.f=ligand
     38      C    -3.32601700    -1.69218600     0.81846400       region=ligand adf.f=ligand
     39      C    -4.13542500    -0.56276100    -1.27655600       region=ligand adf.f=ligand
     40      C    -1.93435300    -1.76168900    -1.24521800       region=ligand adf.f=ligand
     41      C    -2.98148700     2.75785400    -1.35602000       region=ligand adf.f=ligand
     42      C    -0.70400600     2.97573400    -0.34460800       region=ligand adf.f=ligand
     43      C    -1.05989000     1.45210000    -2.29560000       region=ligand adf.f=ligand
     44      H    -2.49607700     0.38388600     2.47166800       region=ligand adf.f=ligand
     45      H    -1.99524900     2.01765000     2.09496800       region=ligand adf.f=ligand
     46      C    -4.11036700     1.64096000     1.77586600       region=ligand adf.f=ligand
     47      C    -4.01124800    -2.99238700     0.38776900       region=ligand adf.f=ligand
     48      H    -4.02035200    -1.10928400     1.44300800       region=ligand adf.f=ligand
     49      H    -2.43905200    -1.92104000     1.43461000       region=ligand adf.f=ligand
     50      C    -4.82469300    -1.86902300    -1.69334300       region=ligand adf.f=ligand
     51      H    -4.83911100     0.07656700    -0.71973500       region=ligand adf.f=ligand
     52      H    -3.83897000    -0.00424600    -2.17843100       region=ligand adf.f=ligand
     53      C    -2.62506100    -3.05904500    -1.68045500       region=ligand adf.f=ligand
     54      H    -1.05684900    -2.10284500    -0.63865000       region=ligand adf.f=ligand
     55      H    -1.55138700    -1.22662700    -2.12515000       region=ligand adf.f=ligand
     56      C    -2.65412900     3.90423900    -2.32328200       region=ligand adf.f=ligand
     57      H    -3.43658900     3.17828800    -0.44746600       region=ligand adf.f=ligand
     58      H    -3.72602600     2.08725800    -1.80977800       region=ligand adf.f=ligand
     59      C    -0.38536800     4.12528600    -1.30386600       region=ligand adf.f=ligand
     60      H    -1.13156300     3.38390000     0.58647900       region=ligand adf.f=ligand
     61      H     0.21962200     2.44474900    -0.06407400       region=ligand adf.f=ligand
     62      C    -0.73434600     2.60373400    -3.24958700       region=ligand adf.f=ligand
     63      H    -1.74992000     0.75267100    -2.79458200       region=ligand adf.f=ligand
     64      H    -0.14279000     0.88787000    -2.05010800       region=ligand adf.f=ligand
     65      H    -4.75051400     0.87842500     1.30348800       region=ligand adf.f=ligand
     66      C    -4.60213500     1.89288900     3.19610200       region=ligand adf.f=ligand
     67      H    -4.24753900     2.55563000     1.17985600       region=ligand adf.f=ligand
     68      C    -5.24780500    -2.65255400    -0.44808700       region=ligand adf.f=ligand
     69      C    -3.04023400    -3.84094200    -0.43449600       region=ligand adf.f=ligand
     70      H    -4.31262800    -3.54407500     1.29318000       region=ligand adf.f=ligand
     71      C    -3.85404200    -2.71333200    -2.52393900       region=ligand adf.f=ligand
     72      H    -5.71328000    -1.62231000    -2.29754400       region=ligand adf.f=ligand
     73      H    -1.90833000    -3.65104900    -2.27040900       region=ligand adf.f=ligand
     74      C    -1.67395200     4.87153000    -1.65566500       region=ligand adf.f=ligand
     75      C    -2.02634400     3.34462400    -3.60142000       region=ligand adf.f=ligand
     76      H    -3.58985400     4.43302000    -2.56920200       region=ligand adf.f=ligand
     77      C     0.24994100     3.56166900    -2.57618600       region=ligand adf.f=ligand
     78      H     0.32112400     4.80998500    -0.80719000       region=ligand adf.f=ligand
     79      H    -0.28195200     2.18601400    -4.16374100       region=ligand adf.f=ligand
     80      H    -3.94955800     2.64281800     3.67688000       region=ligand adf.f=ligand
     81      H    -4.48087500     0.96855100     3.78827600       region=ligand adf.f=ligand
     82      C    -6.04875100     2.35476600     3.25227400       region=ligand adf.f=ligand
     83      H    -5.77128800    -3.57673300    -0.74438200       region=ligand adf.f=ligand
     84      H    -5.96108100    -2.05905600     0.14965100       region=ligand adf.f=ligand
     85      H    -3.51878600    -4.79053900    -0.72584200       region=ligand adf.f=ligand
     86      H    -2.14578100    -4.09319000     0.15788600       region=ligand adf.f=ligand
     87      H    -4.34979800    -3.63886200    -2.86091800       region=ligand adf.f=ligand
     88      H    -3.55274400    -2.16350400    -3.43195000       region=ligand adf.f=ligand
     89      H    -1.45394900     5.71444300    -2.33201500       region=ligand adf.f=ligand
     90      H    -2.12478600     5.30125000    -0.74480700       region=ligand adf.f=ligand
     91      H    -1.81570600     4.16389500    -4.30896000       region=ligand adf.f=ligand
     92      H    -2.73107500     2.66058300    -4.10461800       region=ligand adf.f=ligand
     93      H     0.51475800     4.38098800    -3.26520100       region=ligand adf.f=ligand
     94      H     1.18576900     3.03281500    -2.32913600       region=ligand adf.f=ligand
     95      H    -6.72449900     1.60718600     2.80662400       region=ligand adf.f=ligand
     96      H    -6.37893900     2.52514100     4.28772800       region=ligand adf.f=ligand
     97      H    -6.18978300     3.29702200     2.69893600       region=ligand adf.f=ligand
 
Total System Charge             0.00000
Bonding info available!
 
 
----------------
ADF Engine Input
----------------
 
 Basis
 Type TZP
 Core None
 End
 Fragments
 ligand ./gs_pad2nbu.ligand.results/adf.rkf
 pdsubstrate ./gs_pad2nbu.pdsubstrate.results/adf.rkf
 End
 XC
 Hybrid PBE0
 DISPERSION Grimme3 BJDAMP
 End
 NumericalQuality VeryGood
 

 Title: *** (NO TITLE) ***

 *** adf ***



 ===========================
 A T T A C H E D   F I L E S
 ===========================
  



 ===============================
 M O D E L   P A R A M E T E R S
 ===============================
  
 DENSITY FUNCTIONAL POTENTIAL (scf)
    Hybrid:                            PBE0                                    == Not Default ==

 SPIN  (restricted / unrestr.)
    Molecule:                          Restricted                               
    Fragments:                         Restricted                               

 OTHER ASPECTS
    Relativistic Corrections:          scalar (ZORA,MAPA)                       

    Nuclear Charge Density Model:      Point Charge Nuclei                      
    Core Treatment:                    Frozen Orbital(s)                        

    Hyperfine or Zeeman Interaction:   ---                                      

 Settings for Grimme D3 dispersion correction

      damping                        BJ
      s6                          1.000
      s8                          1.218
      a1                          0.414
      a2                          4.859

 Other (technical) parameters

      alpha                      14.000
      version                         4
 


 Fragment File(s)
 ----------------
 pdsubstrate:
         file : ./gs_pad2nbu.pdsubstrate.results/adf.rkf
         jobid: 517495018
         title: *** adf ***
 ligand:
         file : ./gs_pad2nbu.ligand.results/adf.rkf
         jobid: 965364796
         title: *** adf ***



 ===============
 G E O M E T R Y  ***  3D  Molecule  ***
 ===============
  

 ATOMS
 =====                            X Y Z                    CHARGE
                                (Angstrom)             Nucl     +Core       At.Mass
                       --------------------------    ----------------       -------
    1  Pd              0.0686   -0.6130    0.2817     46.00     46.00      105.9035
    2  C               1.2024    0.5270    1.4170      6.00      6.00       12.0000
    3  C               0.7146    0.9867    2.6459      6.00      6.00       12.0000
    4  H              -0.3074    0.7541    2.9440      1.00      1.00        1.0078
    5  C               1.5064    1.7181    3.5193      6.00      6.00       12.0000
    6  H               1.1203    2.0757    4.4758      1.00      1.00        1.0078
    7  C               2.8344    1.9981    3.1797      6.00      6.00       12.0000
    8  C               3.3445    1.5187    1.9752      6.00      6.00       12.0000
    9  H               4.3848    1.7004    1.7160      1.00      1.00        1.0078
   10  C               2.5461    0.7785    1.0796      6.00      6.00       12.0000
   11  C               3.1772    0.2456   -0.1495      6.00      6.00       12.0000
   12  C               4.1556    0.9563   -0.8520      6.00      6.00       12.0000
   13  C               4.8003    0.4247   -1.9647      6.00      6.00       12.0000
   14  C               4.4521   -0.8437   -2.4170      6.00      6.00       12.0000
   15  C               3.4449   -1.5525   -1.7711      6.00      6.00       12.0000
   16  C               2.8140   -1.0370   -0.6319      6.00      6.00       12.0000
   17  N               1.7312   -1.7030   -0.0770      7.00      7.00       14.0031
   18  S               1.8127   -3.2033    0.5307     16.00     16.00       31.9721
   19  O               0.5757   -3.9043    0.1929      8.00      8.00       15.9949
   20  O               3.1179   -3.8074    0.2852      8.00      8.00       15.9949
   21  C               1.7882   -2.9964    2.3378      6.00      6.00       12.0000
   22  Cl              0.2072   -2.5716    3.0003     17.00     17.00       34.9689
   23  H               2.5185   -2.2187    2.5963      1.00      1.00        1.0078
   24  H               2.0923   -3.9720    2.7390      1.00      1.00        1.0078
   25  F               3.0516   -2.7010   -2.2946      9.00      9.00       18.9984
   26  F               5.0350   -1.3410   -3.4948      9.00      9.00       18.9984
   27  F               5.7273    1.1267   -2.6004      9.00      9.00       18.9984
   28  F               4.5075    2.1914   -0.4916      9.00      9.00       18.9984
   29  O               3.5481    2.7170    4.0720      8.00      8.00       15.9949
   30  C               4.8819    3.0211    3.7753      6.00      6.00       12.0000
   31  H               5.5012    2.1113    3.6811      1.00      1.00        1.0078
   32  H               5.2617    3.6218    4.6115      1.00      1.00        1.0078
   33  H               4.9731    3.6064    2.8431      1.00      1.00        1.0078
   34  P              -1.8759    0.5722    0.2041     15.00     15.00       30.9738
   35  C              -2.9015   -0.8746   -0.4207      6.00      6.00       12.0000
   36  C              -1.6975    1.9909   -1.0000      6.00      6.00       12.0000
   37  C              -2.6499    1.2019    1.7486      6.00      6.00       12.0000
   38  C              -3.3260   -1.6922    0.8185      6.00      6.00       12.0000
   39  C              -4.1354   -0.5628   -1.2766      6.00      6.00       12.0000
   40  C              -1.9344   -1.7617   -1.2452      6.00      6.00       12.0000
   41  C              -2.9815    2.7579   -1.3560      6.00      6.00       12.0000
   42  C              -0.7040    2.9757   -0.3446      6.00      6.00       12.0000
   43  C              -1.0599    1.4521   -2.2956      6.00      6.00       12.0000
   44  H              -2.4961    0.3839    2.4717      1.00      1.00        1.0078
   45  H              -1.9952    2.0177    2.0950      1.00      1.00        1.0078
   46  C              -4.1104    1.6410    1.7759      6.00      6.00       12.0000
   47  C              -4.0112   -2.9924    0.3878      6.00      6.00       12.0000
   48  H              -4.0204   -1.1093    1.4430      1.00      1.00        1.0078
   49  H              -2.4391   -1.9210    1.4346      1.00      1.00        1.0078
   50  C              -4.8247   -1.8690   -1.6933      6.00      6.00       12.0000
   51  H              -4.8391    0.0766   -0.7197      1.00      1.00        1.0078
   52  H              -3.8390   -0.0042   -2.1784      1.00      1.00        1.0078
   53  C              -2.6251   -3.0590   -1.6805      6.00      6.00       12.0000
   54  H              -1.0568   -2.1028   -0.6387      1.00      1.00        1.0078
   55  H              -1.5514   -1.2266   -2.1252      1.00      1.00        1.0078
   56  C              -2.6541    3.9042   -2.3233      6.00      6.00       12.0000
   57  H              -3.4366    3.1783   -0.4475      1.00      1.00        1.0078
   58  H              -3.7260    2.0873   -1.8098      1.00      1.00        1.0078
   59  C              -0.3854    4.1253   -1.3039      6.00      6.00       12.0000
   60  H              -1.1316    3.3839    0.5865      1.00      1.00        1.0078
   61  H               0.2196    2.4447   -0.0641      1.00      1.00        1.0078
   62  C              -0.7343    2.6037   -3.2496      6.00      6.00       12.0000
   63  H              -1.7499    0.7527   -2.7946      1.00      1.00        1.0078
   64  H              -0.1428    0.8879   -2.0501      1.00      1.00        1.0078
   65  H              -4.7505    0.8784    1.3035      1.00      1.00        1.0078
   66  C              -4.6021    1.8929    3.1961      6.00      6.00       12.0000
   67  H              -4.2475    2.5556    1.1799      1.00      1.00        1.0078
   68  C              -5.2478   -2.6526   -0.4481      6.00      6.00       12.0000
   69  C              -3.0402   -3.8409   -0.4345      6.00      6.00       12.0000
   70  H              -4.3126   -3.5441    1.2932      1.00      1.00        1.0078
   71  C              -3.8540   -2.7133   -2.5239      6.00      6.00       12.0000
   72  H              -5.7133   -1.6223   -2.2975      1.00      1.00        1.0078
   73  H              -1.9083   -3.6510   -2.2704      1.00      1.00        1.0078
   74  C              -1.6740    4.8715   -1.6557      6.00      6.00       12.0000
   75  C              -2.0263    3.3446   -3.6014      6.00      6.00       12.0000
   76  H              -3.5899    4.4330   -2.5692      1.00      1.00        1.0078
   77  C               0.2499    3.5617   -2.5762      6.00      6.00       12.0000
   78  H               0.3211    4.8100   -0.8072      1.00      1.00        1.0078
   79  H              -0.2820    2.1860   -4.1637      1.00      1.00        1.0078
   80  H              -3.9496    2.6428    3.6769      1.00      1.00        1.0078
   81  H              -4.4809    0.9686    3.7883      1.00      1.00        1.0078
   82  C              -6.0488    2.3548    3.2523      6.00      6.00       12.0000
   83  H              -5.7713   -3.5767   -0.7444      1.00      1.00        1.0078
   84  H              -5.9611   -2.0591    0.1497      1.00      1.00        1.0078
   85  H              -3.5188   -4.7905   -0.7258      1.00      1.00        1.0078
   86  H              -2.1458   -4.0932    0.1579      1.00      1.00        1.0078
   87  H              -4.3498   -3.6389   -2.8609      1.00      1.00        1.0078
   88  H              -3.5527   -2.1635   -3.4320      1.00      1.00        1.0078
   89  H              -1.4539    5.7144   -2.3320      1.00      1.00        1.0078
   90  H              -2.1248    5.3012   -0.7448      1.00      1.00        1.0078
   91  H              -1.8157    4.1639   -4.3090      1.00      1.00        1.0078
   92  H              -2.7311    2.6606   -4.1046      1.00      1.00        1.0078
   93  H               0.5148    4.3810   -3.2652      1.00      1.00        1.0078
   94  H               1.1858    3.0328   -2.3291      1.00      1.00        1.0078
   95  H              -6.7245    1.6072    2.8066      1.00      1.00        1.0078
   96  H              -6.3789    2.5251    4.2877      1.00      1.00        1.0078
   97  H              -6.1898    3.2970    2.6989      1.00      1.00        1.0078


 FRAGMENTS
 =========                                     Atoms in this Fragment     Cart. coord.s (Angstrom)
                                               -------------------------------------------------------
    1  pdsubstrate                                       1  Pd           0.0686   -0.6130    0.2817
                                                         2  C            1.2024    0.5270    1.4170
                                                         3  C            0.7146    0.9867    2.6459
                                                         5  C            1.5064    1.7181    3.5193
                                                         7  C            2.8344    1.9981    3.1797
                                                         8  C            3.3445    1.5187    1.9752
                                                        10  C            2.5461    0.7785    1.0796
                                                        11  C            3.1772    0.2456   -0.1495
                                                        12  C            4.1556    0.9563   -0.8520
                                                        13  C            4.8003    0.4247   -1.9647
                                                        14  C            4.4521   -0.8437   -2.4170
                                                        15  C            3.4449   -1.5525   -1.7711
                                                        16  C            2.8140   -1.0370   -0.6319
                                                        21  C            1.7882   -2.9964    2.3378
                                                        30  C            4.8819    3.0211    3.7753
                                                         4  H           -0.3074    0.7541    2.9440
                                                         6  H            1.1203    2.0757    4.4758
                                                         9  H            4.3848    1.7004    1.7160
                                                        23  H            2.5185   -2.2187    2.5963
                                                        24  H            2.0923   -3.9720    2.7390
                                                        31  H            5.5012    2.1113    3.6811
                                                        32  H            5.2617    3.6218    4.6115
                                                        33  H            4.9731    3.6064    2.8431
                                                        17  N            1.7312   -1.7030   -0.0770
                                                        18  S            1.8127   -3.2033    0.5307
                                                        19  O            0.5757   -3.9043    0.1929
                                                        20  O            3.1179   -3.8074    0.2852
                                                        29  O            3.5481    2.7170    4.0720
                                                        22  Cl           0.2072   -2.5716    3.0003
                                                        25  F            3.0516   -2.7010   -2.2946
                                                        26  F            5.0350   -1.3410   -3.4948
                                                        27  F            5.7273    1.1267   -2.6004
                                                        28  F            4.5075    2.1914   -0.4916
    2  ligand                                           65  H           -4.7505    0.8784    1.3035
                                                        67  H           -4.2475    2.5556    1.1799
                                                        70  H           -4.3126   -3.5441    1.2932
                                                        72  H           -5.7133   -1.6223   -2.2975
                                                        73  H           -1.9083   -3.6510   -2.2704
                                                        76  H           -3.5899    4.4330   -2.5692
                                                        78  H            0.3211    4.8100   -0.8072
                                                        79  H           -0.2820    2.1860   -4.1637
                                                        80  H           -3.9496    2.6428    3.6769
                                                        81  H           -4.4809    0.9686    3.7883
                                                        83  H           -5.7713   -3.5767   -0.7444
                                                        84  H           -5.9611   -2.0591    0.1497
                                                        85  H           -3.5188   -4.7905   -0.7258
                                                        86  H           -2.1458   -4.0932    0.1579
                                                        87  H           -4.3498   -3.6389   -2.8609
                                                        88  H           -3.5527   -2.1635   -3.4320
                                                        89  H           -1.4539    5.7144   -2.3320
                                                        90  H           -2.1248    5.3012   -0.7448
                                                        91  H           -1.8157    4.1639   -4.3090
                                                        92  H           -2.7311    2.6606   -4.1046
                                                        93  H            0.5148    4.3810   -3.2652
                                                        94  H            1.1858    3.0328   -2.3291
                                                        95  H           -6.7245    1.6072    2.8066
                                                        96  H           -6.3789    2.5251    4.2877
                                                        97  H           -6.1898    3.2970    2.6989
                                                        44  H           -2.4961    0.3839    2.4717
                                                        45  H           -1.9952    2.0177    2.0950
                                                        48  H           -4.0204   -1.1093    1.4430
                                                        49  H           -2.4391   -1.9210    1.4346
                                                        51  H           -4.8391    0.0766   -0.7197
                                                        52  H           -3.8390   -0.0042   -2.1784
                                                        54  H           -1.0568   -2.1028   -0.6387
                                                        55  H           -1.5514   -1.2266   -2.1252
                                                        57  H           -3.4366    3.1783   -0.4475
                                                        58  H           -3.7260    2.0873   -1.8098
                                                        60  H           -1.1316    3.3839    0.5865
                                                        61  H            0.2196    2.4447   -0.0641
                                                        63  H           -1.7499    0.7527   -2.7946
                                                        64  H           -0.1428    0.8879   -2.0501
                                                        66  C           -4.6021    1.8929    3.1961
                                                        68  C           -5.2478   -2.6526   -0.4481
                                                        69  C           -3.0402   -3.8409   -0.4345
                                                        71  C           -3.8540   -2.7133   -2.5239
                                                        74  C           -1.6740    4.8715   -1.6557
                                                        75  C           -2.0263    3.3446   -3.6014
                                                        77  C            0.2499    3.5617   -2.5762
                                                        82  C           -6.0488    2.3548    3.2523
                                                        35  C           -2.9015   -0.8746   -0.4207
                                                        36  C           -1.6975    1.9909   -1.0000
                                                        37  C           -2.6499    1.2019    1.7486
                                                        38  C           -3.3260   -1.6922    0.8185
                                                        39  C           -4.1354   -0.5628   -1.2766
                                                        40  C           -1.9344   -1.7617   -1.2452
                                                        41  C           -2.9815    2.7579   -1.3560
                                                        42  C           -0.7040    2.9757   -0.3446
                                                        43  C           -1.0599    1.4521   -2.2956
                                                        46  C           -4.1104    1.6410    1.7759
                                                        47  C           -4.0112   -2.9924    0.3878
                                                        50  C           -4.8247   -1.8690   -1.6933
                                                        53  C           -2.6251   -3.0590   -1.6805
                                                        56  C           -2.6541    3.9042   -2.3233
                                                        59  C           -0.3854    4.1253   -1.3039
                                                        62  C           -0.7343    2.6037   -3.2496
                                                        34  P           -1.8759    0.5722    0.2041



 =====================================
 S Y M M E T R Y ,   E L E C T R O N S
 =====================================
  
 Symmetry: NOSYM

 Irreducible Representations, including subspecies
 -------------------------------------------------
 A


 Configuration of Valence Electrons
 ==================================
 ( determined in the SCF procedure )

 Total:   436

 Net Charge: 0 (Nuclei minus Electrons)

 Aufbau principle for MO occupations will be applied through SCF cycle no.     150
 Thereafter, the program will assign electrons to MOs that are spatially
 similar to the occupied MOs in a "reference" cycle ("KeepOrbitals").
 The reference cycle is always the PREVIOUS cycle: it will evolve with
 the SCF procedure.
1
 ***************************************************************************************************



                                      ****************************************
                                      *  B U I L D : (Fragments, Functions)  *
                                      ****************************************
  

 The individual fragments are copies of the corresponding 'Master' fragments defined on the fragment files.
 However, they may have been rotated (and translated) with respect to the Master. The local coordinate axes
 of each fragment (which define for instance the spatial orientation in the current molecule of a fragment
 P:x orbital) are not necessarily those of the molecule.
 The local frame (if different from the molecular one) is printed to enable an interpretation of the expan-
 sion of an MO in Fragment Orbitals.



                                         *********************************
                                         *  Fragment Type : pdsubstrate  *
                                         *********************************
  

 Fragment no.    1   (in the list of all fragments)
 -----------------
 The local coordinate frame is identical to the molecular frame.

 Check Atomic Coordinates:

                  Master (on file)          After Computed Tranformation               As specified on Input
           ----------------------------     ----------------------------     ---------------------------------
     1)     0.06860  -0.61295   0.28168      0.06860  -0.61295   0.28168       1   0.06860  -0.61295   0.28168
     2)     1.20237   0.52697   1.41697      1.20237   0.52697   1.41697       2   1.20237   0.52697   1.41697
     3)     0.71459   0.98674   2.64586      0.71459   0.98674   2.64586       3   0.71459   0.98674   2.64586
     4)     1.50645   1.71814   3.51929      1.50645   1.71814   3.51929       5   1.50645   1.71814   3.51929
     5)     2.83440   1.99809   3.17966      2.83440   1.99809   3.17966       7   2.83440   1.99809   3.17966
     6)     3.34447   1.51872   1.97518      3.34447   1.51872   1.97518       8   3.34447   1.51872   1.97518
     7)     2.54611   0.77854   1.07964      2.54611   0.77854   1.07964      10   2.54611   0.77854   1.07964
     8)     3.17725   0.24561  -0.14946      3.17725   0.24561  -0.14946      11   3.17725   0.24561  -0.14946
     9)     4.15558   0.95628  -0.85199      4.15558   0.95628  -0.85199      12   4.15558   0.95628  -0.85199
    10)     4.80027   0.42468  -1.96465      4.80027   0.42468  -1.96465      13   4.80027   0.42468  -1.96465
    11)     4.45206  -0.84374  -2.41702      4.45206  -0.84374  -2.41702      14   4.45206  -0.84374  -2.41702
    12)     3.44490  -1.55254  -1.77106      3.44490  -1.55254  -1.77106      15   3.44490  -1.55254  -1.77106
    13)     2.81396  -1.03696  -0.63191      2.81396  -1.03696  -0.63191      16   2.81396  -1.03696  -0.63191
    14)     1.78821  -2.99640   2.33780      1.78821  -2.99640   2.33780      21   1.78821  -2.99640   2.33780
    15)     4.88188   3.02108   3.77526      4.88188   3.02108   3.77526      30   4.88188   3.02108   3.77526
    16)    -0.30739   0.75409   2.94402     -0.30739   0.75409   2.94402       4  -0.30739   0.75409   2.94402
    17)     1.12029   2.07570   4.47580      1.12029   2.07570   4.47580       6   1.12029   2.07570   4.47580
    18)     4.38477   1.70040   1.71602      4.38477   1.70040   1.71602       9   4.38477   1.70040   1.71602
    19)     2.51848  -2.21868   2.59630      2.51848  -2.21868   2.59630      23   2.51848  -2.21868   2.59630
    20)     2.09228  -3.97200   2.73895      2.09228  -3.97200   2.73895      24   2.09228  -3.97200   2.73895
    21)     5.50119   2.11127   3.68110      5.50119   2.11127   3.68110      31   5.50119   2.11127   3.68110
    22)     5.26174   3.62180   4.61147      5.26174   3.62180   4.61147      32   5.26174   3.62180   4.61147
    23)     4.97310   3.60641   2.84306      4.97310   3.60641   2.84306      33   4.97310   3.60641   2.84306
    24)     1.73120  -1.70298  -0.07704      1.73120  -1.70298  -0.07704      17   1.73120  -1.70298  -0.07704
    25)     1.81268  -3.20330   0.53067      1.81268  -3.20330   0.53067      18   1.81268  -3.20330   0.53067
    26)     0.57567  -3.90432   0.19292      0.57567  -3.90432   0.19292      19   0.57567  -3.90432   0.19292
    27)     3.11793  -3.80735   0.28520      3.11793  -3.80735   0.28520      20   3.11793  -3.80735   0.28520
    28)     3.54812   2.71702   4.07197      3.54812   2.71702   4.07197      29   3.54812   2.71702   4.07197
    29)     0.20722  -2.57158   3.00026      0.20722  -2.57158   3.00026      22   0.20722  -2.57158   3.00026
    30)     3.05157  -2.70102  -2.29464      3.05157  -2.70102  -2.29464      25   3.05157  -2.70102  -2.29464
    31)     5.03503  -1.34101  -3.49480      5.03503  -1.34101  -3.49480      26   5.03503  -1.34101  -3.49480
    32)     5.72730   1.12669  -2.60043      5.72730   1.12669  -2.60043      27   5.72730   1.12669  -2.60043
    33)     4.50748   2.19141  -0.49158      4.50748   2.19141  -0.49158      28   4.50748   2.19141  -0.49158



                                            ****************************
                                            *  Fragment Type : ligand  *
                                            ****************************
  

 Fragment no.    2   (in the list of all fragments)
 -----------------
 The local coordinate frame is identical to the molecular frame.

 Check Atomic Coordinates:

                  Master (on file)          After Computed Tranformation               As specified on Input
           ----------------------------     ----------------------------     ---------------------------------
     1)    -4.75051   0.87843   1.30349     -4.75051   0.87843   1.30349      65  -4.75051   0.87843   1.30349
     2)    -4.24754   2.55563   1.17986     -4.24754   2.55563   1.17986      67  -4.24754   2.55563   1.17986
     3)    -4.31263  -3.54407   1.29318     -4.31263  -3.54407   1.29318      70  -4.31263  -3.54407   1.29318
     4)    -5.71328  -1.62231  -2.29754     -5.71328  -1.62231  -2.29754      72  -5.71328  -1.62231  -2.29754
     5)    -1.90833  -3.65105  -2.27041     -1.90833  -3.65105  -2.27041      73  -1.90833  -3.65105  -2.27041
     6)    -3.58985   4.43302  -2.56920     -3.58985   4.43302  -2.56920      76  -3.58985   4.43302  -2.56920
     7)     0.32112   4.80999  -0.80719      0.32112   4.80999  -0.80719      78   0.32112   4.80999  -0.80719
     8)    -0.28195   2.18601  -4.16374     -0.28195   2.18601  -4.16374      79  -0.28195   2.18601  -4.16374
     9)    -3.94956   2.64282   3.67688     -3.94956   2.64282   3.67688      80  -3.94956   2.64282   3.67688
    10)    -4.48088   0.96855   3.78828     -4.48088   0.96855   3.78828      81  -4.48088   0.96855   3.78828
    11)    -5.77129  -3.57673  -0.74438     -5.77129  -3.57673  -0.74438      83  -5.77129  -3.57673  -0.74438
    12)    -5.96108  -2.05906   0.14965     -5.96108  -2.05906   0.14965      84  -5.96108  -2.05906   0.14965
    13)    -3.51879  -4.79054  -0.72584     -3.51879  -4.79054  -0.72584      85  -3.51879  -4.79054  -0.72584
    14)    -2.14578  -4.09319   0.15789     -2.14578  -4.09319   0.15789      86  -2.14578  -4.09319   0.15789
    15)    -4.34980  -3.63886  -2.86092     -4.34980  -3.63886  -2.86092      87  -4.34980  -3.63886  -2.86092
    16)    -3.55274  -2.16350  -3.43195     -3.55274  -2.16350  -3.43195      88  -3.55274  -2.16350  -3.43195
    17)    -1.45395   5.71444  -2.33202     -1.45395   5.71444  -2.33202      89  -1.45395   5.71444  -2.33202
    18)    -2.12479   5.30125  -0.74481     -2.12479   5.30125  -0.74481      90  -2.12479   5.30125  -0.74481
    19)    -1.81571   4.16390  -4.30896     -1.81571   4.16390  -4.30896      91  -1.81571   4.16390  -4.30896
    20)    -2.73108   2.66058  -4.10462     -2.73108   2.66058  -4.10462      92  -2.73108   2.66058  -4.10462
    21)     0.51476   4.38099  -3.26520      0.51476   4.38099  -3.26520      93   0.51476   4.38099  -3.26520
    22)     1.18577   3.03281  -2.32914      1.18577   3.03281  -2.32914      94   1.18577   3.03281  -2.32914
    23)    -6.72450   1.60719   2.80662     -6.72450   1.60719   2.80662      95  -6.72450   1.60719   2.80662
    24)    -6.37894   2.52514   4.28773     -6.37894   2.52514   4.28773      96  -6.37894   2.52514   4.28773
    25)    -6.18978   3.29702   2.69894     -6.18978   3.29702   2.69894      97  -6.18978   3.29702   2.69894
    26)    -2.49608   0.38389   2.47167     -2.49608   0.38389   2.47167      44  -2.49608   0.38389   2.47167
    27)    -1.99525   2.01765   2.09497     -1.99525   2.01765   2.09497      45  -1.99525   2.01765   2.09497
    28)    -4.02035  -1.10928   1.44301     -4.02035  -1.10928   1.44301      48  -4.02035  -1.10928   1.44301
    29)    -2.43905  -1.92104   1.43461     -2.43905  -1.92104   1.43461      49  -2.43905  -1.92104   1.43461
    30)    -4.83911   0.07657  -0.71974     -4.83911   0.07657  -0.71974      51  -4.83911   0.07657  -0.71974
    31)    -3.83897  -0.00425  -2.17843     -3.83897  -0.00425  -2.17843      52  -3.83897  -0.00425  -2.17843
    32)    -1.05685  -2.10284  -0.63865     -1.05685  -2.10284  -0.63865      54  -1.05685  -2.10284  -0.63865
    33)    -1.55139  -1.22663  -2.12515     -1.55139  -1.22663  -2.12515      55  -1.55139  -1.22663  -2.12515
    34)    -3.43659   3.17829  -0.44747     -3.43659   3.17829  -0.44747      57  -3.43659   3.17829  -0.44747
    35)    -3.72603   2.08726  -1.80978     -3.72603   2.08726  -1.80978      58  -3.72603   2.08726  -1.80978
    36)    -1.13156   3.38390   0.58648     -1.13156   3.38390   0.58648      60  -1.13156   3.38390   0.58648
    37)     0.21962   2.44475  -0.06407      0.21962   2.44475  -0.06407      61   0.21962   2.44475  -0.06407
    38)    -1.74992   0.75267  -2.79458     -1.74992   0.75267  -2.79458      63  -1.74992   0.75267  -2.79458
    39)    -0.14279   0.88787  -2.05011     -0.14279   0.88787  -2.05011      64  -0.14279   0.88787  -2.05011
    40)    -4.60213   1.89289   3.19610     -4.60213   1.89289   3.19610      66  -4.60213   1.89289   3.19610
    41)    -5.24780  -2.65255  -0.44809     -5.24780  -2.65255  -0.44809      68  -5.24780  -2.65255  -0.44809
    42)    -3.04023  -3.84094  -0.43450     -3.04023  -3.84094  -0.43450      69  -3.04023  -3.84094  -0.43450
    43)    -3.85404  -2.71333  -2.52394     -3.85404  -2.71333  -2.52394      71  -3.85404  -2.71333  -2.52394
    44)    -1.67395   4.87153  -1.65567     -1.67395   4.87153  -1.65567      74  -1.67395   4.87153  -1.65567
    45)    -2.02634   3.34462  -3.60142     -2.02634   3.34462  -3.60142      75  -2.02634   3.34462  -3.60142
    46)     0.24994   3.56167  -2.57619      0.24994   3.56167  -2.57619      77   0.24994   3.56167  -2.57619
    47)    -6.04875   2.35477   3.25227     -6.04875   2.35477   3.25227      82  -6.04875   2.35477   3.25227
    48)    -2.90150  -0.87460  -0.42068     -2.90150  -0.87460  -0.42068      35  -2.90150  -0.87460  -0.42068
    49)    -1.69750   1.99087  -0.99999     -1.69750   1.99087  -0.99999      36  -1.69750   1.99087  -0.99999
    50)    -2.64986   1.20194   1.74856     -2.64986   1.20194   1.74856      37  -2.64986   1.20194   1.74856
    51)    -3.32602  -1.69219   0.81846     -3.32602  -1.69219   0.81846      38  -3.32602  -1.69219   0.81846
    52)    -4.13542  -0.56276  -1.27656     -4.13542  -0.56276  -1.27656      39  -4.13542  -0.56276  -1.27656
    53)    -1.93435  -1.76169  -1.24522     -1.93435  -1.76169  -1.24522      40  -1.93435  -1.76169  -1.24522
    54)    -2.98149   2.75785  -1.35602     -2.98149   2.75785  -1.35602      41  -2.98149   2.75785  -1.35602
    55)    -0.70401   2.97573  -0.34461     -0.70401   2.97573  -0.34461      42  -0.70401   2.97573  -0.34461
    56)    -1.05989   1.45210  -2.29560     -1.05989   1.45210  -2.29560      43  -1.05989   1.45210  -2.29560
    57)    -4.11037   1.64096   1.77587     -4.11037   1.64096   1.77587      46  -4.11037   1.64096   1.77587
    58)    -4.01125  -2.99239   0.38777     -4.01125  -2.99239   0.38777      47  -4.01125  -2.99239   0.38777
    59)    -4.82469  -1.86902  -1.69334     -4.82469  -1.86902  -1.69334      50  -4.82469  -1.86902  -1.69334
    60)    -2.62506  -3.05904  -1.68046     -2.62506  -3.05904  -1.68046      53  -2.62506  -3.05904  -1.68046
    61)    -2.65413   3.90424  -2.32328     -2.65413   3.90424  -2.32328      56  -2.65413   3.90424  -2.32328
    62)    -0.38537   4.12529  -1.30387     -0.38537   4.12529  -1.30387      59  -0.38537   4.12529  -1.30387
    63)    -0.73435   2.60373  -3.24959     -0.73435   2.60373  -3.24959      62  -0.73435   2.60373  -3.24959
    64)    -1.87590   0.57222   0.20409     -1.87590   0.57222   0.20409      34  -1.87590   0.57222   0.20409

 Total nr. of (C)SFOs (summation over all irreps) :  1303

 Specify PRINT SFO in the input file to get a full list

 Nr. of SFOs for ir.rep.           A :  1303



 ================================
 (Slater-type)  F U N C T I O N S  ***  (Basis and Fit)  ***
 ================================
  

 Atom Type    1  (Pd)
 ==============

 Valence Basis Sets:  26
 -----------------------
   1 S  306.000000
   1 S   76.400000
   1 S   45.900000
   2 S   53.800000
   2 S   19.550000
   3 S   10.150000
   3 S    6.650000
   4 S    6.150000
   4 S    3.900000
   5 S    2.500000
   5 S    1.450000
   5 S    0.850000
   2 P   29.100000
   2 P   18.750000
   3 P   11.250000
   3 P    8.100000
   4 P    5.950000
   4 P    3.950000
   4 P    2.700000
   3 D   17.550000
   3 D   10.450000
   3 D    6.900000
   4 D    4.250000
   4 D    2.200000
   4 D    1.100000
   5 P    1.450000

 Charge Fitting Sets (for the computation of the Coulomb Potential):  58
 -----------------------------------------------------------------------
   1 S  612.000000
   1 S  446.101000
   1 S  325.174000
   1 S  237.027000
   1 S  172.774000
   1 S  125.939000
   1 S   91.800000
   1 S   53.670000
   2 S   58.190000
   2 S   38.430000
   3 S   37.300000
   3 S   26.280000
   4 S   24.500000
   4 S   18.000000
   5 S   16.470000
   5 S   12.460000
   6 S   11.300000
   6 S    8.740000
   7 S    7.890000
   7 S    6.210000
   8 S    5.590000
   8 S    4.470000
   8 S    3.570000
   9 S    3.210000
   9 S    2.600000
   9 S    2.100000
   9 S    1.700000
   2 P   64.650000
   3 P   49.410000
   4 P   37.530000
   5 P   28.620000
   6 P   21.980000
   6 P   14.500000
   7 P   11.220000
   7 P    7.620000
   8 P    5.940000
   8 P    4.130000
   9 P    3.240000
   9 P    2.300000
   3 D   56.350000
   4 D   37.260000
   5 D   25.120000
   6 D   17.230000
   6 D   10.190000
   7 D    7.110000
   7 D    4.360000
   8 D    3.090000
   8 D    1.950000
   4 F   47.900000
   5 F   28.270000
   6 F   17.190000
   6 F    9.040000
   7 F    5.640000
   7 F    3.100000
   5 G   20.900000
   6 G    9.980000
   7 G    4.980000
   7 G    2.200000

 Atom Type    2  (C)
 ==============

 Valence Basis Sets:   9
 -----------------------
   1 S    7.680000
   1 S    5.000000
   2 S    1.280000
   2 S    2.100000
   2 S    4.600000
   2 P    0.820000
   2 P    1.480000
   2 P    2.940000
   3 D    2.200000

 Charge Fitting Sets (for the computation of the Coulomb Potential):  22
 -----------------------------------------------------------------------
   1 S   15.360000
   2 S   17.530000
   2 S   12.070000
   2 S    8.310000
   2 S    5.730000
   3 S    5.780000
   3 S    4.220000
   3 S    3.080000
   3 S    2.250000
   3 S    1.640000
   2 P    9.880000
   2 P    5.800000
   3 P    5.050000
   3 P    3.230000
   3 P    2.060000
   3 D    7.200000
   3 D    4.400000
   3 D    2.690000
   3 D    1.640000
   4 F    5.400000
   4 F    3.550000
   5 G    4.500000

 Atom Type    3  (H)
 ==============

 Valence Basis Sets:   4
 -----------------------
   1 S    0.690000
   1 S    0.920000
   1 S    1.580000
   2 P    1.250000

 Charge Fitting Sets (for the computation of the Coulomb Potential):  11
 -----------------------------------------------------------------------
   1 S    3.160000
   1 S    2.090000
   1 S    1.380000
   2 S    1.500000
   2 P    4.000000
   2 P    2.650000
   2 P    1.750000
   3 D    4.000000
   3 D    2.500000
   4 F    3.000000
   5 G    4.000000

 Atom Type    4  (N)
 ==============

 Valence Basis Sets:   9
 -----------------------
   1 S    8.740000
   1 S    5.900000
   2 S    5.150000
   2 S    2.500000
   2 S    1.500000
   2 P    3.680000
   2 P    1.880000
   2 P    1.000000
   3 D    2.200000

 Charge Fitting Sets (for the computation of the Coulomb Potential):  22
 -----------------------------------------------------------------------
   1 S   17.480000
   2 S   20.150000
   2 S   13.990000
   2 S    9.710000
   2 S    6.740000
   3 S    6.860000
   3 S    5.040000
   3 S    3.700000
   3 S    2.720000
   3 S    2.000000
   2 P   11.320000
   2 P    6.730000
   3 P    5.920000
   3 P    3.820000
   3 P    2.460000
   3 D    8.100000
   3 D    5.080000
   3 D    3.190000
   3 D    2.000000
   4 F    5.800000
   4 F    3.600000
   5 G    4.500000

 Atom Type    5  (S)
 ==============

 Valence Basis Sets:  13
 -----------------------
   1 S   19.400000
   1 S   14.350000
   2 S    5.900000
   2 S    4.250000
   2 P    8.050000
   2 P    4.550000
   3 S    3.450000
   3 S    2.250000
   3 S    1.500000
   3 P    2.650000
   3 P    1.600000
   3 P    1.000000
   3 D    2.100000

 Charge Fitting Sets (for the computation of the Coulomb Potential):  30
 -----------------------------------------------------------------------
   1 S   38.800000
   1 S   23.350000
   2 S   26.020000
   2 S   17.570000
   3 S   17.420000
   3 S   12.500000
   3 S    8.980000
   4 S    8.520000
   4 S    6.360000
   4 S    4.750000
   5 S    4.420000
   5 S    3.390000
   5 S    2.600000
   5 S    2.000000
   2 P   27.450000
   3 P   20.250000
   4 P   14.920000
   4 P    8.780000
   5 P    6.520000
   5 P    4.040000
   5 P    2.500000
   3 D   20.900000
   4 D   14.560000
   4 D    8.130000
   5 D    5.740000
   5 D    3.390000
   5 D    2.000000
   4 F    5.000000
   4 F    3.000000
   5 G    3.620000

 Atom Type    6  (O)
 ==============

 Valence Basis Sets:   9
 -----------------------
   1 S    9.800000
   1 S    6.800000
   2 S    7.580000
   2 S    2.880000
   2 S    1.720000
   2 P    4.080000
   2 P    2.080000
   2 P    1.120000
   3 D    2.000000

 Charge Fitting Sets (for the computation of the Coulomb Potential):  22
 -----------------------------------------------------------------------
   1 S   19.600000
   2 S   22.600000
   2 S   15.680000
   2 S   10.890000
   2 S    7.560000
   3 S    7.690000
   3 S    5.650000
   3 S    4.150000
   3 S    3.050000
   3 S    2.240000
   2 P   12.860000
   2 P    7.680000
   3 P    6.780000
   3 P    4.390000
   3 P    2.840000
   3 D    8.800000
   3 D    5.580000
   3 D    3.530000
   3 D    2.240000
   4 F    6.200000
   4 F    3.700000
   5 G    4.500000

 Atom Type    7  (Cl)
 ==============

 Valence Basis Sets:  13
 -----------------------
   1 S   20.300000
   1 S   15.250000
   2 S    6.250000
   2 S    4.450000
   2 P    8.850000
   2 P    5.050000
   3 S    3.450000
   3 S    2.300000
   3 S    1.600000
   3 P    3.350000
   3 P    2.050000
   3 P    1.200000
   3 D    2.000000

 Charge Fitting Sets (for the computation of the Coulomb Potential):  30
 -----------------------------------------------------------------------
   1 S   40.600000
   1 S   24.830000
   2 S   28.080000
   2 S   19.200000
   3 S   19.250000
   3 S   13.970000
   3 S   10.130000
   4 S    9.710000
   4 S    7.320000
   4 S    5.510000
   5 S    5.170000
   5 S    4.000000
   5 S    3.100000
   5 S    2.400000
   2 P   29.150000
   3 P   21.740000
   4 P   16.160000
   4 P    9.600000
   5 P    7.180000
   5 P    4.480000
   5 P    2.800000
   3 D   21.950000
   4 D   15.750000
   4 D    9.040000
   5 D    6.550000
   5 D    3.960000
   5 D    2.400000
   4 F    5.000000
   4 F    3.000000
   5 G    3.500000

 Atom Type    8  (F)
 ==============

 Valence Basis Sets:   9
 -----------------------
   1 S   10.880000
   1 S    7.700000
   2 S    3.240000
   2 S    1.940000
   2 S    0.740000
   2 P    4.540000
   2 P    2.300000
   2 P    1.240000
   3 D    2.000000

 Charge Fitting Sets (for the computation of the Coulomb Potential):  23
 -----------------------------------------------------------------------
   1 S   21.760000
   2 S   24.390000
   2 S   16.560000
   2 S   11.240000
   2 S    7.630000
   3 S    7.600000
   3 S    5.480000
   3 S    3.950000
   3 S    2.850000
   3 S    2.050000
   3 S    1.480000
   2 P   14.400000
   2 P    7.530000
   3 P    5.900000
   3 P    3.420000
   3 P    1.980000
   3 D    9.700000
   3 D    6.160000
   3 D    3.910000
   3 D    2.480000
   4 F    6.500000
   4 F    3.750000
   5 G    4.500000

 Atom Type    9  (H)
 ==============

 Valence Basis Sets:   4
 -----------------------
   1 S    0.690000
   1 S    0.920000
   1 S    1.580000
   2 P    1.250000

 Charge Fitting Sets (for the computation of the Coulomb Potential):  11
 -----------------------------------------------------------------------
   1 S    3.160000
   1 S    2.090000
   1 S    1.380000
   2 S    1.500000
   2 P    4.000000
   2 P    2.650000
   2 P    1.750000
   3 D    4.000000
   3 D    2.500000
   4 F    3.000000
   5 G    4.000000

 Atom Type   10  (C)
 ==============

 Valence Basis Sets:   9
 -----------------------
   1 S    7.680000
   1 S    5.000000
   2 S    1.280000
   2 S    2.100000
   2 S    4.600000
   2 P    0.820000
   2 P    1.480000
   2 P    2.940000
   3 D    2.200000

 Charge Fitting Sets (for the computation of the Coulomb Potential):  22
 -----------------------------------------------------------------------
   1 S   15.360000
   2 S   17.530000
   2 S   12.070000
   2 S    8.310000
   2 S    5.730000
   3 S    5.780000
   3 S    4.220000
   3 S    3.080000
   3 S    2.250000
   3 S    1.640000
   2 P    9.880000
   2 P    5.800000
   3 P    5.050000
   3 P    3.230000
   3 P    2.060000
   3 D    7.200000
   3 D    4.400000
   3 D    2.690000
   3 D    1.640000
   4 F    5.400000
   4 F    3.550000
   5 G    4.500000

 Atom Type   11  (P)
 ==============

 Valence Basis Sets:  13
 -----------------------
   1 S   18.000000
   1 S   13.350000
   2 S    5.600000
   2 S    4.050000
   2 P    7.450000
   2 P    4.100000
   3 S    2.700000
   3 S    1.850000
   3 S    1.300000
   3 P    2.300000
   3 P    1.350000
   3 P    0.850000
   3 D    1.900000

 Charge Fitting Sets (for the computation of the Coulomb Potential):  30
 -----------------------------------------------------------------------
   1 S   36.000000
   1 S   21.450000
   2 S   23.670000
   2 S   15.860000
   3 S   15.600000
   3 S   11.130000
   3 S    7.940000
   4 S    7.490000
   4 S    5.560000
   4 S    4.130000
   5 S    3.810000
   5 S    2.910000
   5 S    2.230000
   5 S    1.700000
   2 P   25.450000
   3 P   18.490000
   4 P   13.440000
   4 P    7.810000
   5 P    5.730000
   5 P    3.510000
   5 P    2.150000
   3 D   19.350000
   4 D   13.230000
   4 D    7.250000
   5 D    5.040000
   5 D    2.930000
   5 D    1.700000
   4 F    5.000000
   4 F    3.000000
   5 G    3.750000


 BAS: List of all Elementary Cartesian Basis Functions
 =====================================================

 The numbering in the list below (to the right of the function characteristics) is referred
 to in print-outs of MO eigenvectors and Mulliken populations in the BAS representation
 (as contrasted to the SFO representation).

 Notes:
 1. The functions are characterized by a polynomial prefactor (powers of x,y,z and r) and
    an exponential decay factor alpha.
 2. Since the basis sets are specific for an atom TYPE, the individual functions occur on
    all atoms of that type.
 3. The word 'Core' in the left margin signals that it is a Core Function (CF) : not a
    degree of freedom in the valence set, but only used to ensure orthogonalization of
    the other valence basis functions on the frozen Core Orbitals.


 (power of) X  Y  Z  R     Alpha  on Atom
            ==========     =====     ==========

 Pd                                   1
                                  ---------------------------------------------------------------------------
            0  0  0  0   306.000      1
            0  0  0  0    76.400      2
            0  0  0  0    45.900      3
            0  0  0  1    53.800      4
            0  0  0  1    19.550      5
            0  0  0  2    10.150      6
            0  0  0  2     6.650      7
            0  0  0  3     6.150      8
            0  0  0  3     3.900      9
            0  0  0  4     2.500     10
            0  0  0  4     1.450     11
            0  0  0  4     0.850     12
            1  0  0  0    29.100     13
            0  1  0  0    29.100     14
            0  0  1  0    29.100     15
            1  0  0  0    18.750     16
            0  1  0  0    18.750     17
            0  0  1  0    18.750     18
            1  0  0  1    11.250     19
            0  1  0  1    11.250     20
            0  0  1  1    11.250     21
            1  0  0  1     8.100     22
            0  1  0  1     8.100     23
            0  0  1  1     8.100     24
            1  0  0  2     5.950     25
            0  1  0  2     5.950     26
            0  0  1  2     5.950     27
            1  0  0  2     3.950     28
            0  1  0  2     3.950     29
            0  0  1  2     3.950     30
            1  0  0  2     2.700     31
            0  1  0  2     2.700     32
            0  0  1  2     2.700     33
            2  0  0  0    17.550     34
            1  1  0  0    17.550     35
            1  0  1  0    17.550     36
            0  2  0  0    17.550     37
            0  1  1  0    17.550     38
            0  0  2  0    17.550     39
            2  0  0  0    10.450     40
            1  1  0  0    10.450     41
            1  0  1  0    10.450     42
            0  2  0  0    10.450     43
            0  1  1  0    10.450     44
            0  0  2  0    10.450     45
            2  0  0  0     6.900     46
            1  1  0  0     6.900     47
            1  0  1  0     6.900     48
            0  2  0  0     6.900     49
            0  1  1  0     6.900     50
            0  0  2  0     6.900     51
            2  0  0  1     4.250     52
            1  1  0  1     4.250     53
            1  0  1  1     4.250     54
            0  2  0  1     4.250     55
            0  1  1  1     4.250     56
            0  0  2  1     4.250     57
            2  0  0  1     2.200     58
            1  1  0  1     2.200     59
            1  0  1  1     2.200     60
            0  2  0  1     2.200     61
            0  1  1  1     2.200     62
            0  0  2  1     2.200     63
            2  0  0  1     1.100     64
            1  1  0  1     1.100     65
            1  0  1  1     1.100     66
            0  2  0  1     1.100     67
            0  1  1  1     1.100     68
            0  0  2  1     1.100     69
            1  0  0  3     1.450     70
            0  1  0  3     1.450     71
            0  0  1  3     1.450     72

 C                                    2    3    4    5    6    7    8    9   10   11   12   13   14   15
                                  ---------------------------------------------------------------------------
            0  0  0  0     7.680     73   93  113  133  153  173  193  213  233  253  273  293  313  333
            0  0  0  0     5.000     74   94  114  134  154  174  194  214  234  254  274  294  314  334
            0  0  0  1     1.280     75   95  115  135  155  175  195  215  235  255  275  295  315  335
            0  0  0  1     2.100     76   96  116  136  156  176  196  216  236  256  276  296  316  336
            0  0  0  1     4.600     77   97  117  137  157  177  197  217  237  257  277  297  317  337
            1  0  0  0     0.820     78   98  118  138  158  178  198  218  238  258  278  298  318  338
            0  1  0  0     0.820     79   99  119  139  159  179  199  219  239  259  279  299  319  339
            0  0  1  0     0.820     80  100  120  140  160  180  200  220  240  260  280  300  320  340
            1  0  0  0     1.480     81  101  121  141  161  181  201  221  241  261  281  301  321  341
            0  1  0  0     1.480     82  102  122  142  162  182  202  222  242  262  282  302  322  342
            0  0  1  0     1.480     83  103  123  143  163  183  203  223  243  263  283  303  323  343
            1  0  0  0     2.940     84  104  124  144  164  184  204  224  244  264  284  304  324  344
            0  1  0  0     2.940     85  105  125  145  165  185  205  225  245  265  285  305  325  345
            0  0  1  0     2.940     86  106  126  146  166  186  206  226  246  266  286  306  326  346
            2  0  0  0     2.200     87  107  127  147  167  187  207  227  247  267  287  307  327  347
            1  1  0  0     2.200     88  108  128  148  168  188  208  228  248  268  288  308  328  348
            1  0  1  0     2.200     89  109  129  149  169  189  209  229  249  269  289  309  329  349
            0  2  0  0     2.200     90  110  130  150  170  190  210  230  250  270  290  310  330  350
            0  1  1  0     2.200     91  111  131  151  171  191  211  231  251  271  291  311  331  351
            0  0  2  0     2.200     92  112  132  152  172  192  212  232  252  272  292  312  332  352

 H                                   16   17   18   19   20   21   22   23
                                  ---------------------------------------------------------------------------
            0  0  0  0     0.690    353  359  365  371  377  383  389  395
            0  0  0  0     0.920    354  360  366  372  378  384  390  396
            0  0  0  0     1.580    355  361  367  373  379  385  391  397
            1  0  0  0     1.250    356  362  368  374  380  386  392  398
            0  1  0  0     1.250    357  363  369  375  381  387  393  399
            0  0  1  0     1.250    358  364  370  376  382  388  394  400

 N                                   24
                                  ---------------------------------------------------------------------------
            0  0  0  0     8.740    401
            0  0  0  0     5.900    402
            0  0  0  1     5.150    403
            0  0  0  1     2.500    404
            0  0  0  1     1.500    405
            1  0  0  0     3.680    406
            0  1  0  0     3.680    407
            0  0  1  0     3.680    408
            1  0  0  0     1.880    409
            0  1  0  0     1.880    410
            0  0  1  0     1.880    411
            1  0  0  0     1.000    412
            0  1  0  0     1.000    413
            0  0  1  0     1.000    414
            2  0  0  0     2.200    415
            1  1  0  0     2.200    416
            1  0  1  0     2.200    417
            0  2  0  0     2.200    418
            0  1  1  0     2.200    419
            0  0  2  0     2.200    420

 S                                   25
                                  ---------------------------------------------------------------------------
            0  0  0  0    19.400    421
            0  0  0  0    14.350    422
            0  0  0  1     5.900    423
            0  0  0  1     4.250    424
            1  0  0  0     8.050    425
            0  1  0  0     8.050    426
            0  0  1  0     8.050    427
            1  0  0  0     4.550    428
            0  1  0  0     4.550    429
            0  0  1  0     4.550    430
            0  0  0  2     3.450    431
            0  0  0  2     2.250    432
            0  0  0  2     1.500    433
            1  0  0  1     2.650    434
            0  1  0  1     2.650    435
            0  0  1  1     2.650    436
            1  0  0  1     1.600    437
            0  1  0  1     1.600    438
            0  0  1  1     1.600    439
            1  0  0  1     1.000    440
            0  1  0  1     1.000    441
            0  0  1  1     1.000    442
            2  0  0  0     2.100    443
            1  1  0  0     2.100    444
            1  0  1  0     2.100    445
            0  2  0  0     2.100    446
            0  1  1  0     2.100    447
            0  0  2  0     2.100    448

 O                                   26   27   28
                                  ---------------------------------------------------------------------------
            0  0  0  0     9.800    449  469  489
            0  0  0  0     6.800    450  470  490
            0  0  0  1     7.580    451  471  491
            0  0  0  1     2.880    452  472  492
            0  0  0  1     1.720    453  473  493
            1  0  0  0     4.080    454  474  494
            0  1  0  0     4.080    455  475  495
            0  0  1  0     4.080    456  476  496
            1  0  0  0     2.080    457  477  497
            0  1  0  0     2.080    458  478  498
            0  0  1  0     2.080    459  479  499
            1  0  0  0     1.120    460  480  500
            0  1  0  0     1.120    461  481  501
            0  0  1  0     1.120    462  482  502
            2  0  0  0     2.000    463  483  503
            1  1  0  0     2.000    464  484  504
            1  0  1  0     2.000    465  485  505
            0  2  0  0     2.000    466  486  506
            0  1  1  0     2.000    467  487  507
            0  0  2  0     2.000    468  488  508

 Cl                                  29
                                  ---------------------------------------------------------------------------
            0  0  0  0    20.300    509
            0  0  0  0    15.250    510
            0  0  0  1     6.250    511
            0  0  0  1     4.450    512
            1  0  0  0     8.850    513
            0  1  0  0     8.850    514
            0  0  1  0     8.850    515
            1  0  0  0     5.050    516
            0  1  0  0     5.050    517
            0  0  1  0     5.050    518
            0  0  0  2     3.450    519
            0  0  0  2     2.300    520
            0  0  0  2     1.600    521
            1  0  0  1     3.350    522
            0  1  0  1     3.350    523
            0  0  1  1     3.350    524
            1  0  0  1     2.050    525
            0  1  0  1     2.050    526
            0  0  1  1     2.050    527
            1  0  0  1     1.200    528
            0  1  0  1     1.200    529
            0  0  1  1     1.200    530
            2  0  0  0     2.000    531
            1  1  0  0     2.000    532
            1  0  1  0     2.000    533
            0  2  0  0     2.000    534
            0  1  1  0     2.000    535
            0  0  2  0     2.000    536

 F                                   30   31   32   33
                                  ---------------------------------------------------------------------------
            0  0  0  0    10.880    537  557  577  597
            0  0  0  0     7.700    538  558  578  598
            0  0  0  1     3.240    539  559  579  599
            0  0  0  1     1.940    540  560  580  600
            0  0  0  1     0.740    541  561  581  601
            1  0  0  0     4.540    542  562  582  602
            0  1  0  0     4.540    543  563  583  603
            0  0  1  0     4.540    544  564  584  604
            1  0  0  0     2.300    545  565  585  605
            0  1  0  0     2.300    546  566  586  606
            0  0  1  0     2.300    547  567  587  607
            1  0  0  0     1.240    548  568  588  608
            0  1  0  0     1.240    549  569  589  609
            0  0  1  0     1.240    550  570  590  610
            2  0  0  0     2.000    551  571  591  611
            1  1  0  0     2.000    552  572  592  612
            1  0  1  0     2.000    553  573  593  613
            0  2  0  0     2.000    554  574  594  614
            0  1  1  0     2.000    555  575  595  615
            0  0  2  0     2.000    556  576  596  616

 H                                   34   35   36   37   38   39   40   41   42   43   44   45   46   47   48
                                     49   50   51   52   53   54   55   56   57   58   59   60   61   62   63
                                     64   65   66   67   68   69   70   71   72
                                  ---------------------------------------------------------------------------
            0  0  0  0     0.690    617  623  629  635  641  647  653  659  665  671  677  683  689  695  701
                                    707  713  719  725  731  737  743  749  755  761  767  773  779  785  791
                                    797  803  809  815  821  827  833  839  845
            0  0  0  0     0.920    618  624  630  636  642  648  654  660  666  672  678  684  690  696  702
                                    708  714  720  726  732  738  744  750  756  762  768  774  780  786  792
                                    798  804  810  816  822  828  834  840  846
            0  0  0  0     1.580    619  625  631  637  643  649  655  661  667  673  679  685  691  697  703
                                    709  715  721  727  733  739  745  751  757  763  769  775  781  787  793
                                    799  805  811  817  823  829  835  841  847
            1  0  0  0     1.250    620  626  632  638  644  650  656  662  668  674  680  686  692  698  704
                                    710  716  722  728  734  740  746  752  758  764  770  776  782  788  794
                                    800  806  812  818  824  830  836  842  848
            0  1  0  0     1.250    621  627  633  639  645  651  657  663  669  675  681  687  693  699  705
                                    711  717  723  729  735  741  747  753  759  765  771  777  783  789  795
                                    801  807  813  819  825  831  837  843  849
            0  0  1  0     1.250    622  628  634  640  646  652  658  664  670  676  682  688  694  700  706
                                    712  718  724  730  736  742  748  754  760  766  772  778  784  790  796
                                    802  808  814  820  826  832  838  844  850

 C                                   73   74   75   76   77   78   79   80   81   82   83   84   85   86   87
                                     88   89   90   91   92   93   94   95   96
                                  ---------------------------------------------------------------------------
            0  0  0  0     7.680    851  871  891  911  931  951  971  991 1011 1031 1051 1071 1091 1111 1131
                                   1151 1171 1191 1211 1231 1251 1271 1291 1311
            0  0  0  0     5.000    852  872  892  912  932  952  972  992 1012 1032 1052 1072 1092 1112 1132
                                   1152 1172 1192 1212 1232 1252 1272 1292 1312
            0  0  0  1     1.280    853  873  893  913  933  953  973  993 1013 1033 1053 1073 1093 1113 1133
                                   1153 1173 1193 1213 1233 1253 1273 1293 1313
            0  0  0  1     2.100    854  874  894  914  934  954  974  994 1014 1034 1054 1074 1094 1114 1134
                                   1154 1174 1194 1214 1234 1254 1274 1294 1314
            0  0  0  1     4.600    855  875  895  915  935  955  975  995 1015 1035 1055 1075 1095 1115 1135
                                   1155 1175 1195 1215 1235 1255 1275 1295 1315
            1  0  0  0     0.820    856  876  896  916  936  956  976  996 1016 1036 1056 1076 1096 1116 1136
                                   1156 1176 1196 1216 1236 1256 1276 1296 1316
            0  1  0  0     0.820    857  877  897  917  937  957  977  997 1017 1037 1057 1077 1097 1117 1137
                                   1157 1177 1197 1217 1237 1257 1277 1297 1317
            0  0  1  0     0.820    858  878  898  918  938  958  978  998 1018 1038 1058 1078 1098 1118 1138
                                   1158 1178 1198 1218 1238 1258 1278 1298 1318
            1  0  0  0     1.480    859  879  899  919  939  959  979  999 1019 1039 1059 1079 1099 1119 1139
                                   1159 1179 1199 1219 1239 1259 1279 1299 1319
            0  1  0  0     1.480    860  880  900  920  940  960  980 1000 1020 1040 1060 1080 1100 1120 1140
                                   1160 1180 1200 1220 1240 1260 1280 1300 1320
            0  0  1  0     1.480    861  881  901  921  941  961  981 1001 1021 1041 1061 1081 1101 1121 1141
                                   1161 1181 1201 1221 1241 1261 1281 1301 1321
            1  0  0  0     2.940    862  882  902  922  942  962  982 1002 1022 1042 1062 1082 1102 1122 1142
                                   1162 1182 1202 1222 1242 1262 1282 1302 1322
            0  1  0  0     2.940    863  883  903  923  943  963  983 1003 1023 1043 1063 1083 1103 1123 1143
                                   1163 1183 1203 1223 1243 1263 1283 1303 1323
            0  0  1  0     2.940    864  884  904  924  944  964  984 1004 1024 1044 1064 1084 1104 1124 1144
                                   1164 1184 1204 1224 1244 1264 1284 1304 1324
            2  0  0  0     2.200    865  885  905  925  945  965  985 1005 1025 1045 1065 1085 1105 1125 1145
                                   1165 1185 1205 1225 1245 1265 1285 1305 1325
            1  1  0  0     2.200    866  886  906  926  946  966  986 1006 1026 1046 1066 1086 1106 1126 1146
                                   1166 1186 1206 1226 1246 1266 1286 1306 1326
            1  0  1  0     2.200    867  887  907  927  947  967  987 1007 1027 1047 1067 1087 1107 1127 1147
                                   1167 1187 1207 1227 1247 1267 1287 1307 1327
            0  2  0  0     2.200    868  888  908  928  948  968  988 1008 1028 1048 1068 1088 1108 1128 1148
                                   1168 1188 1208 1228 1248 1268 1288 1308 1328
            0  1  1  0     2.200    869  889  909  929  949  969  989 1009 1029 1049 1069 1089 1109 1129 1149
                                   1169 1189 1209 1229 1249 1269 1289 1309 1329
            0  0  2  0     2.200    870  890  910  930  950  970  990 1010 1030 1050 1070 1090 1110 1130 1150
                                   1170 1190 1210 1230 1250 1270 1290 1310 1330

 P                                   97
                                  ---------------------------------------------------------------------------
            0  0  0  0    18.000   1331
            0  0  0  0    13.350   1332
            0  0  0  1     5.600   1333
            0  0  0  1     4.050   1334
            1  0  0  0     7.450   1335
            0  1  0  0     7.450   1336
            0  0  1  0     7.450   1337
            1  0  0  0     4.100   1338
            0  1  0  0     4.100   1339
            0  0  1  0     4.100   1340
            0  0  0  2     2.700   1341
            0  0  0  2     1.850   1342
            0  0  0  2     1.300   1343
            1  0  0  1     2.300   1344
            0  1  0  1     2.300   1345
            0  0  1  1     2.300   1346
            1  0  0  1     1.350   1347
            0  1  0  1     1.350   1348
            0  0  1  1     1.350   1349
            1  0  0  1     0.850   1350
            0  1  0  1     0.850   1351
            0  0  1  1     0.850   1352
            2  0  0  0     1.900   1353
            1  1  0  0     1.900   1354
            1  0  1  0     1.900   1355
            0  2  0  0     1.900   1356
            0  1  1  0     1.900   1357
            0  0  2  0     1.900   1358

 Total number of charge fitting functions (nprimf)      6773
 Total number of Cartesian basis functions (naos)       1358
 Total number of Cartesian core functions  (ncos)          0

1
 ***************************************************************************************************



                                              ***********************
                                              *  T E C H N I C A L  *
                                              ***********************
  



 =============================================================
 P A R A L L E L I Z A T I O N  and  V E C T O R I Z A T I O N
 =============================================================
  
 Nr of parallel processes:                               16
 Maximum vector length in NumInt loops:                 128



 =====================
 S C F   U P D A T E S
 =====================
  
 Max. nr. of cycles:                               300
 Convergence criterion:                              0.0000010000
[...]
     450       15.6204         0.000       
     449       15.5849         0.000       
     448       15.4476         0.000       
     447       15.3673         0.000       
     446       15.3423         0.000       
     445       15.2555         0.000       
     444       15.2196         0.000       
     443       15.1163         0.000       
     442       15.0790         0.000       
     441       14.9872         0.000       
     440       14.9300         0.000       
     439       14.8419         0.000       
     438       14.7873         0.000       
     437       14.7292         0.000       
     436       14.6067         0.000       
     435       14.5865         0.000       
     434       14.4650         0.000       
     433       14.4298         0.000       
     432       14.3360         0.000       
     431       14.2870         0.000       
     430       14.2014         0.000       
     429       14.1140         0.000       
     428       14.0707         0.000       
     427       14.0182         0.000       
     426       13.9358         0.000       
     425       13.8555         0.000       
     424       13.8100         0.000       
     423       13.7265         0.000       
     422       13.6077         0.000       
     421       13.5646         0.000       
     420       13.5097         0.000       
     419       13.4300         0.000       
     418       13.4009         0.000       
     417       13.2829         0.000       
     416       13.2558         0.000       
     415       13.1900         0.000       
     414       13.1114         0.000       
     413       13.0526         0.000       
     412       12.9543         0.000       
     411       12.8793         0.000       
     410       12.8249         0.000       
     409       12.7409         0.000       
     408       12.6744         0.000       
     407       12.5830         0.000       
     406       12.5481         0.000       
     405       12.4259         0.000       
     404       12.3615         0.000       
     403       12.3433         0.000       
     402       12.2364         0.000       
     401       12.2144         0.000       
     400       12.1523         0.000       
     399       12.1084         0.000       
     398       11.9717         0.000       
     397       11.9149         0.000       
     396       11.8306         0.000       
     395       11.8035         0.000       
     394       11.7737         0.000       
     393       11.6954         0.000       
     392       11.6078         0.000       
     391       11.4554         0.000       
     390       11.3934         0.000       
     389       11.3053         0.000       
     388       11.2717         0.000       
     387       11.2189         0.000       
     386       11.1694         0.000       
     385       11.1436         0.000       
     384       11.1057         0.000       
     383       10.9640         0.000       
     382       10.8652         0.000       
     381       10.7811         0.000       
     380       10.7517         0.000       
     379       10.7187         0.000       
     378       10.6036         0.000       
     377       10.5663         0.000       
     376       10.5276         0.000       
     375       10.4713         0.000       
     374       10.4399         0.000       
     373       10.3459         0.000       
     372       10.2386         0.000       
     371       10.1610         0.000       
     370       10.1537         0.000       
     369       10.1168         0.000       
     368       10.0036         0.000       
     367        9.9265         0.000       
     366        9.8785         0.000       
     365        9.8427         0.000       
     364        9.6895         0.000       
     363        9.6870         0.000       
     362        9.6058         0.000       
     361        9.4546         0.000       
     360        9.4006         0.000       
     359        9.3478         0.000       
     358        9.2164         0.000       
     357        9.1317         0.000       
     356        9.0211         0.000       
     355        8.9011         0.000       
     354        8.8315         0.000       
     353        8.7511         0.000       
     352        8.6566         0.000       
     351        8.5900         0.000       
     350        8.4965         0.000       
     349        8.4345         0.000       
     348        8.3530         0.000       
     347        8.2549         0.000       
     346        8.1604         0.000       
     345        8.1354         0.000       
     344        7.9882         0.000       
     343        7.9614         0.000       
     342        7.8462         0.000       
     341        7.8134         0.000       
     340        7.7664         0.000       
     339        7.7070         0.000       
     338        7.6531         0.000       
     337        7.5585         0.000       
     336        7.4541         0.000       
     335        7.3583         0.000       
     334        7.3134         0.000       
     333        7.2582         0.000       
     332        7.2342         0.000       
     331        7.1649         0.000       
     330        7.1327         0.000       
     329        7.1286         0.000       
     328        7.0621         0.000       
     327        7.0208         0.000       
     326        6.9246         0.000       
     325        6.8994         0.000       
     324        6.8408         0.000       
     323        6.7952         0.000       
     322        6.7203         0.000       
     321        6.6245         0.000       
     320        6.5799         0.000       
     319        6.5482         0.000       
     318        6.5182         0.000       
     317        6.4303         0.000       
     316        6.3647         0.000       
     315        6.3082         0.000       
     314        6.2200         0.000       
     313        6.2050         0.000       
     312        6.1618         0.000       
     311        6.0281         0.000       
     310        6.0157         0.000       
     309        6.0009         0.000       
     308        5.9572         0.000       
     307        5.9261         0.000       
     306        5.8345         0.000       
     305        5.6784         0.000       
     304        5.6334         0.000       
     303        5.5596         0.000       
     302        5.4490         0.000       
     301        5.4473         0.000       
     300        5.4165         0.000       
     299        5.3615         0.000       
     298        5.3217         0.000       
     297        5.2738         0.000       
     296        5.1452         0.000       
     295        5.0308         0.000       
     294        5.0229         0.000       
     293        4.9580         0.000       
     292        4.9110         0.000       
     291        4.8022         0.000       
     290        4.7561         0.000       
     289        4.6653         0.000       
     288        4.5002         0.000       
     287        4.4866         0.000       
     286        4.4190         0.000       
     285        4.3265         0.000       
     284        4.2267         0.000       
     283        4.2089         0.000       
     282        4.1458         0.000       
     281        4.0654         0.000       
     280        4.0026         0.000       
     279        3.9390         0.000       
     278        3.8915         0.000       
     277        3.7908         0.000       
     276        3.7386         0.000       
     275        3.7080         0.000       
     274        3.6157         0.000       
     273        3.5331         0.000       
     272        3.4615         0.000       
     271        3.4280         0.000       
     270        3.4047         0.000       
     269        3.2890         0.000       
     268        3.2757         0.000       
     267        3.2029         0.000       
     266        3.1193         0.000       
     265        3.0534         0.000       
     264        2.9890         0.000       
     263        2.9129         0.000       
     262        2.8641         0.000       
     261        2.7373         0.000       
     260        2.6762         0.000       
     259        2.6431         0.000       
     258        2.6051         0.000       
     257        2.5416         0.000       
     256        2.4851         0.000       
     255        2.4324         0.000       
     254        2.3822         0.000       
     253        2.2901         0.000       
     252        2.2560         0.000       
     251        2.1645         0.000       
     250        2.0654         0.000       
     249        2.0150         0.000       
     248        1.9283         0.000       
     247        1.8918         0.000       
     246        1.8106         0.000       
     245        1.7767         0.000       
     244        1.7403         0.000       
     243        1.6186         0.000       
     242        1.5705         0.000       
     241        1.4499         0.000       
     240        1.3899         0.000       
     239        1.2390         0.000       
     238        1.2333         0.000       
     237        1.0558         0.000       
     236        1.0401         0.000       
     235        0.9981         0.000       
     234        0.9399         0.000       
     233        0.8922         0.000       
     232        0.7452         0.000       
     231        0.7390         0.000       
     230        0.6698         0.000       
     229        0.5119         0.000       
     228        0.4356         0.000       
     227        0.2871         0.000       
     226        0.1522         0.000       
     225        0.1176         0.000       
     224        0.0237         0.000       
     223       -0.0586         0.000       
     222       -0.2091         0.000       
     221       -0.3666         0.000       
     220       -1.0777         0.000       
     219       -1.5586         0.000 < LUMO
     218       -5.9624         2.000 < HOMO
     217       -6.2421         2.000       
     216       -6.7345         2.000       
     215       -6.8322         2.000       
     214       -7.5119         2.000       
     213       -7.5978         2.000       
     212       -7.7574         2.000       
     211       -7.8862         2.000       
     210       -8.0557         2.000       
     209       -8.1743         2.000       
     208       -8.2543         2.000       
     207       -8.3046         2.000       
     206       -8.3204         2.000       
     205       -8.3487         2.000       
     204       -8.4766         2.000       
     203       -8.5399         2.000       
     202       -8.6392         2.000       
     201       -8.7079         2.000       
     200       -8.8486         2.000       
     199       -9.1495         2.000       
     198       -9.3009         2.000       
     197       -9.3619         2.000       
     196       -9.4323         2.000       
     195       -9.4655         2.000       
     194       -9.5007         2.000       
     193       -9.5172         2.000       
     192       -9.5910         2.000       
     191       -9.6391         2.000       
     190       -9.6649         2.000       
     189       -9.7018         2.000       
     188       -9.7329         2.000       
     187       -9.8261         2.000       
     186       -9.8592         2.000       
     185       -9.8767         2.000       
     184       -9.9128         2.000       
     183      -10.0776         2.000       
     182      -10.1042         2.000       
     181      -10.2878         2.000       
     180      -10.3722         2.000       
     179      -10.4988         2.000       
     178      -10.6095         2.000       
     177      -10.6898         2.000       
     176      -10.8456         2.000       
     175      -10.9768         2.000       
     174      -11.0880         2.000       
     173      -11.1139         2.000       
     172      -11.2955         2.000       
     171      -11.4142         2.000       
     170      -11.4523         2.000       
     169      -11.5514         2.000       
     168      -11.6031         2.000       
     167      -11.6797         2.000       
     166      -11.7787         2.000       
     165      -11.8544         2.000       
     164      -11.9341         2.000       
     163      -11.9819         2.000       
     162      -12.0507         2.000       
     161      -12.0807         2.000       
     160      -12.1067         2.000       
     159      -12.1611         2.000       
     158      -12.2727         2.000       
     157      -12.3040         2.000       
     156      -12.4159         2.000       
     155      -12.4679         2.000       
     154      -12.6271         2.000       
     153      -12.6934         2.000       
     152      -12.7693         2.000       
     151      -12.8846         2.000       
     150      -12.9228         2.000       
     149      -13.0088         2.000       
     148      -13.0389         2.000       
     147      -13.0680         2.000       
     146      -13.0776         2.000       
     145      -13.1825         2.000       
     144      -13.1957         2.000       
     143      -13.2389         2.000       
     142      -13.3485         2.000       
     141      -13.3596         2.000       
     140      -13.3828         2.000       
     139      -13.4305         2.000       
     138      -13.5789         2.000       
     137      -13.6677         2.000       
     136      -13.7332         2.000       
     135      -14.0371         2.000       
     134      -14.1910         2.000       
     133      -14.4308         2.000       
     132      -14.7452         2.000       
     131      -14.8042         2.000       
     130      -14.9209         2.000       
     129      -15.0963         2.000       
     128      -15.1714         2.000       
     127      -15.5457         2.000       
     126      -15.8039         2.000       
     125      -15.9961         2.000       
     124      -16.1012         2.000       
     123      -16.7232         2.000       
     122      -16.7509         2.000       
     121      -16.7956         2.000       
     120      -16.8388         2.000       
     119      -16.8684         2.000       
     118      -16.9004         2.000       
     117      -16.9415         2.000       
     116      -17.0239         2.000       
     115      -17.2730         2.000       
     114      -17.7694         2.000       
     113      -18.4530         2.000       
     112      -18.5440         2.000       
     111      -19.0442         2.000       
     110      -19.1583         2.000       
     109      -19.1641         2.000       
     108      -19.3158         2.000       
     107      -19.3747         2.000       
     106      -19.6080         2.000       
     105      -19.9757         2.000       
     104      -20.8875         2.000       
     103      -21.1841         2.000       
     102      -21.2601         2.000       
     101      -21.3501         2.000       
     100      -22.0290         2.000       
      99      -22.0799         2.000       
      98      -22.0978         2.000       
      97      -22.1419         2.000       
      96      -22.2000         2.000       
      95      -22.3184         2.000       
      94      -22.6428         2.000       
      93      -23.3273         2.000       
      92      -24.0961         2.000       
      91      -24.3252         2.000       
      90      -24.4922         2.000       
      89      -25.0403         2.000       
      88      -25.1839         2.000       
      87      -25.9695         2.000       
      86      -27.7118         2.000       
      85      -30.2757         2.000       
      84      -30.7170         2.000       
      83      -34.5411         2.000       
      82      -34.7196         2.000       
      81      -35.0014         2.000       
      80      -35.2470         2.000       
      79      -57.8711         2.000       
      78      -58.6735         2.000       
      77      -58.8381         2.000       
      76      -93.8681         2.000       
      75     -129.7566         2.000       
      74     -129.8223         2.000       
      73     -129.8345         2.000       
      72     -165.4894         2.000       
      71     -165.4962         2.000       
      70     -165.5251         2.000       
      69     -181.6159         2.000       
      68     -197.3900         2.000       
      67     -197.4072         2.000       
      66     -197.6744         2.000       
      65     -223.0480         2.000       
      64     -261.0350         2.000       
      63     -278.2056         2.000       
      62     -278.3456         2.000       
      61     -278.4381         2.000       
      60     -278.4614         2.000       
      59     -278.4730         2.000       
      58     -278.4766         2.000       
      57     -278.5097         2.000       
      56     -278.5296         2.000       
      55     -278.5731         2.000       
      54     -278.5825         2.000       
      53     -278.6269         2.000       
      52     -278.6629         2.000       
      51     -278.6932         2.000       
      50     -278.6953         2.000       
      49     -278.6976         2.000       
      48     -278.7056         2.000       
      47     -278.7575         2.000       
      46     -278.7664         2.000       
      45     -278.7692         2.000       
      44     -278.8039         2.000       
      43     -278.8222         2.000       
      42     -278.8466         2.000       
      41     -279.0265         2.000       
      40     -279.0408         2.000       
      39     -279.0444         2.000       
      38     -279.1718         2.000       
      37     -279.2684         2.000       
      36     -279.3069         2.000       
      35     -279.5457         2.000       
      34     -279.6594         2.000       
      33     -279.8575         2.000       
      32     -280.0529         2.000       
      31     -280.1677         2.000       
      30     -280.5054         2.000       
      29     -280.9363         2.000       
      28     -281.1103         2.000       
      27     -281.1524         2.000       
      26     -281.1912         2.000       
      25     -338.1278         2.000       
      24     -338.1702         2.000       
      23     -338.2368         2.000       
      22     -338.4155         2.000       
      21     -338.4210         2.000       
      20     -391.8190         2.000       
      19     -522.4764         2.000       
      18     -522.4889         2.000       
      17     -524.0588         2.000       
      16     -531.9300         2.000       
      15     -532.2596         2.000       
      14     -532.3537         2.000       
      13     -654.0180         2.000       
      12     -674.9949         2.000       
      11     -675.3298         2.000       
      10     -675.3755         2.000       
       9     -675.3762         2.000       
       8    -2107.6704         2.000       
       7    -2434.8447         2.000       
       6    -2777.2615         2.000       
       5    -3190.1260         2.000       
       4    -3190.2674         2.000       
       3    -3190.2975         2.000       
       2    -3561.1803         2.000       
       1   -24224.3229         2.000       

AMS application finished. Exiting.
NORMAL TERMINATION
     Total cpu time:    4292.90
  Total system time:      42.59
 Total elapsed time:    4351.88
NORMAL TERMINATION
