

 Parallel Execution: Process Information
 ==============================================================================
 Rank   Node Name                              NodeID   MyNodeRank  NodeMaster
    0   eu-g5-010-3                               0          0          0
    1   eu-g5-010-3                               1          0          1
    2   eu-g5-010-3                               0          1         -1
    3   eu-g5-010-3                               1          1         -1
    4   eu-g5-010-3                               0          2         -1
    5   eu-g5-010-3                               2          0          2
    6   eu-g5-010-3                               0          3         -1
    7   eu-g5-010-3                               2          1         -1
    8   eu-g5-010-3                               0          4         -1
    9   eu-g5-010-3                               2          2         -1
   10   eu-g5-010-3                               0          5         -1
   11   eu-g5-010-3                               2          3         -1
   12   eu-g5-010-3                               0          6         -1
   13   eu-g5-010-3                               2          4         -1
   14   eu-g5-010-3                               3          0          3
   15   eu-g5-010-3                               4          0          4
 ==============================================================================


May use up to 30759MB of RAM as shared memory on node 0
May use up to 30759MB of RAM as shared memory on node 2
May use up to 30759MB of RAM as shared memory on node 3
May use up to 30759MB of RAM as shared memory on node 4
May use up to 30759MB of RAM as shared memory on node 1

 *******************************************************************************
 *                                                                             *
 *  --------------------------------                                           *
 *   Amsterdam Modeling Suite (AMS)              2023.101                      *
 *  --------------------------------                                           *
 *                                               r111868 2023-03-31            *
 *                                                                             *
 *                                                                             *
 *                              =================                              *
 *                              |               |                              *
 *                              |     A M S     |                              *
 *                              |               |                              *
 *                              =================                              *
 *                                                                             *
 *                                                                             *
 *   Online information and documentation:  https://www.scm.com/support/       *
 *   E-mail:  support@scm.com   info@scm.com                                   *
 *                                                                             *
 *   Scientific publications using AMS results must be properly referenced     *
 *   See the User Manuals (or the web site) for recommended citations          *
 *   The terms and conditions of the End User License Agreement apply to       *
 *   the use of AMS, https://www.scm.com/license-terms/                        *
 *                                                                             *
 ***********************  x86_64_linux_intel / openmpi  ************************
 
 Licensed to: D-CHAB / ETH site license / Zurich / Switzerland 2023-06-23 15:55:12
 SCM User ID: u7035
  
 AMS 2023.101  RunTime: May25-2024 09:19:10  ShM Nodes: 5  Procs: 16

 AMS jobname: gs_ptbu3
 AMS jobid  : 1326183791

 Start   directory: /cluster/scratch/sroediger/michael/eda/
 Results directory: /cluster/scratch/sroediger/michael/eda/gs_ptbu3.results/
 Scratch directory: /scratch/amstmp_gs_ptbu3_kid0.1326183791/


 Communication costs MPI_COMM_WORLD:      9.493 usec per message,   0.0199 usec per 8-byte item
 Communication costs for intra-node:      4.980 usec per message,   0.0244 usec per 8-byte item

 RNG seed: -1816283198 -709111483 1236892855 59662749 2024066132 -1882053953 -863482142 -342294439



                     *************************************************************************
                     *  ADF 2023.101  RunTime: May25-2024 09:19:11  ShM Nodes: 5  Procs: 16  *
                     *************************************************************************
  

       ****************************
       * SINGLE POINT CALCULATION *
       ****************************
 
--------
Geometry
--------
Formula: C26H35ClF4NO3PPdS
Atoms
  Index Symbol   x (angstrom)   y (angstrom)   z (angstrom)
      1     Pd    -0.56184100    -0.49351300     0.26801300       region=pdsubstrate adf.f=pdsubstrate
      2      P    -2.63162900    -0.26311400    -0.70997600       region=ligand adf.f=ligand
      3      C    -4.05829500     0.00626700     0.52973400       region=ligand adf.f=ligand
      4      C    -3.77003000     1.27874900     1.33680600       region=ligand adf.f=ligand
      5      H    -3.71231700     2.18729100     0.72789200       region=ligand adf.f=ligand
      6      H    -4.58608200     1.42054800     2.06398200       region=ligand adf.f=ligand
      7      H    -2.83551100     1.17136100     1.90550400       region=ligand adf.f=ligand
      8      C    -5.44103100     0.10560200    -0.11695700       region=ligand adf.f=ligand
      9      H    -5.69328200    -0.77633500    -0.71963800       region=ligand adf.f=ligand
     10      H    -5.54367700     0.99563600    -0.75176800       region=ligand adf.f=ligand
     11      H    -6.19924800     0.18832500     0.67930200       region=ligand adf.f=ligand
     12      C    -4.05575600    -1.12845600     1.56118400       region=ligand adf.f=ligand
     13      H    -4.36670700    -2.09594500     1.14910500       region=ligand adf.f=ligand
     14      H    -3.07097700    -1.23970100     2.04084100       region=ligand adf.f=ligand
     15      H    -4.77613600    -0.86921200     2.35371500       region=ligand adf.f=ligand
     16      C    -2.82427300     0.89308800    -2.20965200       region=ligand adf.f=ligand
     17      C    -1.46268700     0.98616700    -2.91321300       region=ligand adf.f=ligand
     18      H    -1.13049900     0.03657900    -3.34505900       region=ligand adf.f=ligand
     19      H    -1.54771500     1.71278900    -3.73759900       region=ligand adf.f=ligand
     20      H    -0.68149000     1.33840700    -2.22505300       region=ligand adf.f=ligand
     21      C    -3.89669200     0.43162500    -3.19966900       region=ligand adf.f=ligand
     22      H    -3.96347000     1.17040000    -4.01524200       region=ligand adf.f=ligand
     23      H    -3.65797000    -0.53487100    -3.66140300       region=ligand adf.f=ligand
     24      H    -4.89185100     0.35702700    -2.74224100       region=ligand adf.f=ligand
     25      C    -3.16343000     2.31222100    -1.73984600       region=ligand adf.f=ligand
     26      H    -3.14459200     2.97356500    -2.62108600       region=ligand adf.f=ligand
     27      H    -4.16397000     2.39419000    -1.29618900       region=ligand adf.f=ligand
     28      H    -2.41797400     2.69634400    -1.03037900       region=ligand adf.f=ligand
     29      C    -2.64824400    -2.09338500    -1.28235800       region=ligand adf.f=ligand
     30      C    -4.01927700    -2.69224600    -1.58981400       region=ligand adf.f=ligand
     31      H    -4.53669700    -2.15531700    -2.39607100       region=ligand adf.f=ligand
     32      H    -4.67956800    -2.71510100    -0.71369200       region=ligand adf.f=ligand
     33      H    -3.88552900    -3.73547300    -1.92135400       region=ligand adf.f=ligand
     34      C    -1.96576800    -2.88919700    -0.15171200       region=ligand adf.f=ligand
     35      H    -1.87216500    -3.94333400    -0.46137600       region=ligand adf.f=ligand
     36      H    -2.49241700    -2.87438700     0.80546600       region=ligand adf.f=ligand
     37      H    -0.90959500    -2.58420400     0.03187400       region=ligand adf.f=ligand
     38      C    -1.74451900    -2.26042100    -2.50993200       region=ligand adf.f=ligand
     39      H    -1.62538200    -3.33888800    -2.70302700       region=ligand adf.f=ligand
     40      H    -2.16243400    -1.81251000    -3.41988700       region=ligand adf.f=ligand
     41      H    -0.74044600    -1.84424700    -2.33718500       region=ligand adf.f=ligand
     42      C     0.25155800     1.30474600     0.19494900       region=pdsubstrate adf.f=pdsubstrate
     43      C    -0.44605700     2.41532200     0.66032400       region=pdsubstrate adf.f=pdsubstrate
     44      H    -1.46365000     2.29806200     1.02340700       region=pdsubstrate adf.f=pdsubstrate
     45      C     0.11803100     3.69232600     0.69895900       region=pdsubstrate adf.f=pdsubstrate
     46      H    -0.47706100     4.52612700     1.07244400       region=pdsubstrate adf.f=pdsubstrate
     47      C     1.43395800     3.86565600     0.26957500       region=pdsubstrate adf.f=pdsubstrate
     48      C     2.15534700     2.75584000    -0.17550400       region=pdsubstrate adf.f=pdsubstrate
     49      H     3.18969800     2.92079800    -0.47426500       region=pdsubstrate adf.f=pdsubstrate
     50      C     1.59597800     1.47256600    -0.22043900       region=pdsubstrate adf.f=pdsubstrate
     51      C     2.45853600     0.34414100    -0.63652700       region=pdsubstrate adf.f=pdsubstrate
     52      C     3.44462500     0.47528500    -1.61929200       region=pdsubstrate adf.f=pdsubstrate
     53      C     4.30135200    -0.57219000    -1.94516600       region=pdsubstrate adf.f=pdsubstrate
     54      C     4.16892700    -1.79624600    -1.29726400       region=pdsubstrate adf.f=pdsubstrate
     55      C     3.16331600    -1.96997300    -0.35233200       region=pdsubstrate adf.f=pdsubstrate
     56      C     2.31720600    -0.91180600    -0.00055500       region=pdsubstrate adf.f=pdsubstrate
     57      N     1.24694400    -1.13469500     0.85426200       region=pdsubstrate adf.f=pdsubstrate
     58      S     1.42171600    -1.57724000     2.40716000       region=pdsubstrate adf.f=pdsubstrate
     59      O     0.32142400    -2.47334900     2.74558600       region=pdsubstrate adf.f=pdsubstrate
     60      O     2.80892900    -1.92460600     2.69622000       region=pdsubstrate adf.f=pdsubstrate
     61      C     1.16480800    -0.06444300     3.38630300       region=pdsubstrate adf.f=pdsubstrate
     62     Cl    -0.52695100     0.40999200     3.55695800       region=pdsubstrate adf.f=pdsubstrate
     63      H     1.73316700     0.74574500     2.91075600       region=pdsubstrate adf.f=pdsubstrate
     64      H     1.56971200    -0.29887400     4.37932400       region=pdsubstrate adf.f=pdsubstrate
     65      F     2.98593600    -3.17350400     0.16448500       region=pdsubstrate adf.f=pdsubstrate
     66      F     4.95959200    -2.80353300    -1.62629300       region=pdsubstrate adf.f=pdsubstrate
     67      F     5.22834100    -0.41210900    -2.87769800       region=pdsubstrate adf.f=pdsubstrate
     68      F     3.59972600     1.60912200    -2.29937800       region=pdsubstrate adf.f=pdsubstrate
     69      O     2.09185300     5.04415800     0.26174800       region=pdsubstrate adf.f=pdsubstrate
     70      C     1.42523300     6.18462500     0.72004900       region=pdsubstrate adf.f=pdsubstrate
     71      H     2.13117400     7.02030400     0.63256700       region=pdsubstrate adf.f=pdsubstrate
     72      H     1.11904200     6.08671300     1.77711400       region=pdsubstrate adf.f=pdsubstrate
     73      H     0.52995100     6.41073200     0.11324400       region=pdsubstrate adf.f=pdsubstrate
 
Total System Charge             0.00000
Bonding info available!
 
 
----------------
ADF Engine Input
----------------
 
 Basis
 Type TZP
 Core None
 End
 Fragments
 ligand ./gs_ptbu3.ligand.results/adf.rkf
 pdsubstrate ./gs_ptbu3.pdsubstrate.results/adf.rkf
 End
 XC
 Hybrid PBE0
 DISPERSION Grimme3 BJDAMP
 End
 NumericalQuality VeryGood
 

 Title: *** (NO TITLE) ***

 *** adf ***



 ===========================
 A T T A C H E D   F I L E S
 ===========================
  



 ===============================
 M O D E L   P A R A M E T E R S
 ===============================
  
 DENSITY FUNCTIONAL POTENTIAL (scf)
    Hybrid:                            PBE0                                    == Not Default ==

 SPIN  (restricted / unrestr.)
    Molecule:                          Restricted                               
    Fragments:                         Restricted                               

 OTHER ASPECTS
    Relativistic Corrections:          scalar (ZORA,MAPA)                       

    Nuclear Charge Density Model:      Point Charge Nuclei                      
    Core Treatment:                    Frozen Orbital(s)                        

    Hyperfine or Zeeman Interaction:   ---                                      

 Settings for Grimme D3 dispersion correction

      damping                        BJ
      s6                          1.000
      s8                          1.218
      a1                          0.414
      a2                          4.859

 Other (technical) parameters

      alpha                      14.000
      version                         4
 


 Fragment File(s)
 ----------------
 pdsubstrate:
         file : ./gs_ptbu3.pdsubstrate.results/adf.rkf
         jobid: 809579751
         title: *** adf ***
 ligand:
         file : ./gs_ptbu3.ligand.results/adf.rkf
         jobid: 1413818228
         title: *** adf ***



 ===============
 G E O M E T R Y  ***  3D  Molecule  ***
 ===============
  

 ATOMS
 =====                            X Y Z                    CHARGE
                                (Angstrom)             Nucl     +Core       At.Mass
                       --------------------------    ----------------       -------
    1  Pd             -0.5618   -0.4935    0.2680     46.00     46.00      105.9035
    2  P              -2.6316   -0.2631   -0.7100     15.00     15.00       30.9738
    3  C              -4.0583    0.0063    0.5297      6.00      6.00       12.0000
    4  C              -3.7700    1.2787    1.3368      6.00      6.00       12.0000
    5  H              -3.7123    2.1873    0.7279      1.00      1.00        1.0078
    6  H              -4.5861    1.4205    2.0640      1.00      1.00        1.0078
    7  H              -2.8355    1.1714    1.9055      1.00      1.00        1.0078
    8  C              -5.4410    0.1056   -0.1170      6.00      6.00       12.0000
    9  H              -5.6933   -0.7763   -0.7196      1.00      1.00        1.0078
   10  H              -5.5437    0.9956   -0.7518      1.00      1.00        1.0078
   11  H              -6.1992    0.1883    0.6793      1.00      1.00        1.0078
   12  C              -4.0558   -1.1285    1.5612      6.00      6.00       12.0000
   13  H              -4.3667   -2.0959    1.1491      1.00      1.00        1.0078
   14  H              -3.0710   -1.2397    2.0408      1.00      1.00        1.0078
   15  H              -4.7761   -0.8692    2.3537      1.00      1.00        1.0078
   16  C              -2.8243    0.8931   -2.2097      6.00      6.00       12.0000
   17  C              -1.4627    0.9862   -2.9132      6.00      6.00       12.0000
   18  H              -1.1305    0.0366   -3.3451      1.00      1.00        1.0078
   19  H              -1.5477    1.7128   -3.7376      1.00      1.00        1.0078
   20  H              -0.6815    1.3384   -2.2251      1.00      1.00        1.0078
   21  C              -3.8967    0.4316   -3.1997      6.00      6.00       12.0000
   22  H              -3.9635    1.1704   -4.0152      1.00      1.00        1.0078
   23  H              -3.6580   -0.5349   -3.6614      1.00      1.00        1.0078
   24  H              -4.8919    0.3570   -2.7422      1.00      1.00        1.0078
   25  C              -3.1634    2.3122   -1.7398      6.00      6.00       12.0000
   26  H              -3.1446    2.9736   -2.6211      1.00      1.00        1.0078
   27  H              -4.1640    2.3942   -1.2962      1.00      1.00        1.0078
   28  H              -2.4180    2.6963   -1.0304      1.00      1.00        1.0078
   29  C              -2.6482   -2.0934   -1.2824      6.00      6.00       12.0000
   30  C              -4.0193   -2.6922   -1.5898      6.00      6.00       12.0000
   31  H              -4.5367   -2.1553   -2.3961      1.00      1.00        1.0078
   32  H              -4.6796   -2.7151   -0.7137      1.00      1.00        1.0078
   33  H              -3.8855   -3.7355   -1.9214      1.00      1.00        1.0078
   34  C              -1.9658   -2.8892   -0.1517      6.00      6.00       12.0000
   35  H              -1.8722   -3.9433   -0.4614      1.00      1.00        1.0078
   36  H              -2.4924   -2.8744    0.8055      1.00      1.00        1.0078
   37  H              -0.9096   -2.5842    0.0319      1.00      1.00        1.0078
   38  C              -1.7445   -2.2604   -2.5099      6.00      6.00       12.0000
   39  H              -1.6254   -3.3389   -2.7030      1.00      1.00        1.0078
   40  H              -2.1624   -1.8125   -3.4199      1.00      1.00        1.0078
   41  H              -0.7404   -1.8442   -2.3372      1.00      1.00        1.0078
   42  C               0.2516    1.3047    0.1949      6.00      6.00       12.0000
   43  C              -0.4461    2.4153    0.6603      6.00      6.00       12.0000
   44  H              -1.4636    2.2981    1.0234      1.00      1.00        1.0078
   45  C               0.1180    3.6923    0.6990      6.00      6.00       12.0000
   46  H              -0.4771    4.5261    1.0724      1.00      1.00        1.0078
   47  C               1.4340    3.8657    0.2696      6.00      6.00       12.0000
   48  C               2.1553    2.7558   -0.1755      6.00      6.00       12.0000
   49  H               3.1897    2.9208   -0.4743      1.00      1.00        1.0078
   50  C               1.5960    1.4726   -0.2204      6.00      6.00       12.0000
   51  C               2.4585    0.3441   -0.6365      6.00      6.00       12.0000
   52  C               3.4446    0.4753   -1.6193      6.00      6.00       12.0000
   53  C               4.3014   -0.5722   -1.9452      6.00      6.00       12.0000
   54  C               4.1689   -1.7962   -1.2973      6.00      6.00       12.0000
   55  C               3.1633   -1.9700   -0.3523      6.00      6.00       12.0000
   56  C               2.3172   -0.9118   -0.0006      6.00      6.00       12.0000
   57  N               1.2469   -1.1347    0.8543      7.00      7.00       14.0031
   58  S               1.4217   -1.5772    2.4072     16.00     16.00       31.9721
   59  O               0.3214   -2.4733    2.7456      8.00      8.00       15.9949
   60  O               2.8089   -1.9246    2.6962      8.00      8.00       15.9949
   61  C               1.1648   -0.0644    3.3863      6.00      6.00       12.0000
   62  Cl             -0.5270    0.4100    3.5570     17.00     17.00       34.9689
   63  H               1.7332    0.7457    2.9108      1.00      1.00        1.0078
   64  H               1.5697   -0.2989    4.3793      1.00      1.00        1.0078
   65  F               2.9859   -3.1735    0.1645      9.00      9.00       18.9984
   66  F               4.9596   -2.8035   -1.6263      9.00      9.00       18.9984
   67  F               5.2283   -0.4121   -2.8777      9.00      9.00       18.9984
   68  F               3.5997    1.6091   -2.2994      9.00      9.00       18.9984
   69  O               2.0919    5.0442    0.2617      8.00      8.00       15.9949
   70  C               1.4252    6.1846    0.7200      6.00      6.00       12.0000
   71  H               2.1312    7.0203    0.6326      1.00      1.00        1.0078
   72  H               1.1190    6.0867    1.7771      1.00      1.00        1.0078
   73  H               0.5300    6.4107    0.1132      1.00      1.00        1.0078


 FRAGMENTS
 =========                                     Atoms in this Fragment     Cart. coord.s (Angstrom)
                                               -------------------------------------------------------
    1  pdsubstrate                                       1  Pd          -0.5618   -0.4935    0.2680
                                                        66  F            4.9596   -2.8035   -1.6263
                                                        67  F            5.2283   -0.4121   -2.8777
                                                        68  F            3.5997    1.6091   -2.2994
                                                        65  F            2.9859   -3.1735    0.1645
                                                        69  O            2.0919    5.0442    0.2617
                                                        59  O            0.3214   -2.4733    2.7456
                                                        60  O            2.8089   -1.9246    2.6962
                                                        70  C            1.4252    6.1846    0.7200
                                                        42  C            0.2516    1.3047    0.1949
                                                        43  C           -0.4461    2.4153    0.6603
                                                        45  C            0.1180    3.6923    0.6990
                                                        47  C            1.4340    3.8657    0.2696
                                                        48  C            2.1553    2.7558   -0.1755
                                                        50  C            1.5960    1.4726   -0.2204
                                                        51  C            2.4585    0.3441   -0.6365
                                                        52  C            3.4446    0.4753   -1.6193
                                                        53  C            4.3014   -0.5722   -1.9452
                                                        54  C            4.1689   -1.7962   -1.2973
                                                        55  C            3.1633   -1.9700   -0.3523
                                                        56  C            2.3172   -0.9118   -0.0006
                                                        61  C            1.1648   -0.0644    3.3863
                                                        71  H            2.1312    7.0203    0.6326
                                                        72  H            1.1190    6.0867    1.7771
                                                        73  H            0.5300    6.4107    0.1132
                                                        44  H           -1.4636    2.2981    1.0234
                                                        46  H           -0.4771    4.5261    1.0724
                                                        49  H            3.1897    2.9208   -0.4743
                                                        63  H            1.7332    0.7457    2.9108
                                                        64  H            1.5697   -0.2989    4.3793
                                                        57  N            1.2469   -1.1347    0.8543
                                                        58  S            1.4217   -1.5772    2.4072
                                                        62  Cl          -0.5270    0.4100    3.5570
    2  ligand                                           41  H           -0.7404   -1.8442   -2.3372
                                                         5  H           -3.7123    2.1873    0.7279
                                                         6  H           -4.5861    1.4205    2.0640
                                                         7  H           -2.8355    1.1714    1.9055
                                                         9  H           -5.6933   -0.7763   -0.7196
                                                        10  H           -5.5437    0.9956   -0.7518
                                                        11  H           -6.1992    0.1883    0.6793
                                                        13  H           -4.3667   -2.0959    1.1491
                                                        14  H           -3.0710   -1.2397    2.0408
                                                        15  H           -4.7761   -0.8692    2.3537
                                                        18  H           -1.1305    0.0366   -3.3451
                                                        19  H           -1.5477    1.7128   -3.7376
                                                        20  H           -0.6815    1.3384   -2.2251
                                                        22  H           -3.9635    1.1704   -4.0152
                                                        23  H           -3.6580   -0.5349   -3.6614
                                                        24  H           -4.8919    0.3570   -2.7422
                                                        26  H           -3.1446    2.9736   -2.6211
                                                        27  H           -4.1640    2.3942   -1.2962
                                                        28  H           -2.4180    2.6963   -1.0304
                                                        31  H           -4.5367   -2.1553   -2.3961
                                                        32  H           -4.6796   -2.7151   -0.7137
                                                        33  H           -3.8855   -3.7355   -1.9214
                                                        35  H           -1.8722   -3.9433   -0.4614
                                                        36  H           -2.4924   -2.8744    0.8055
                                                        37  H           -0.9096   -2.5842    0.0319
                                                        39  H           -1.6254   -3.3389   -2.7030
                                                        40  H           -2.1624   -1.8125   -3.4199
                                                         2  P           -2.6316   -0.2631   -0.7100
                                                         3  C           -4.0583    0.0063    0.5297
                                                         4  C           -3.7700    1.2787    1.3368
                                                         8  C           -5.4410    0.1056   -0.1170
                                                        12  C           -4.0558   -1.1285    1.5612
                                                        16  C           -2.8243    0.8931   -2.2097
                                                        17  C           -1.4627    0.9862   -2.9132
                                                        21  C           -3.8967    0.4316   -3.1997
                                                        25  C           -3.1634    2.3122   -1.7398
                                                        29  C           -2.6482   -2.0934   -1.2824
                                                        30  C           -4.0193   -2.6922   -1.5898
                                                        34  C           -1.9658   -2.8892   -0.1517
                                                        38  C           -1.7445   -2.2604   -2.5099



 =====================================
 S Y M M E T R Y ,   E L E C T R O N S
 =====================================
  
 Symmetry: NOSYM

 Irreducible Representations, including subspecies
 -------------------------------------------------
 A


 Configuration of Valence Electrons
 ==================================
 ( determined in the SCF procedure )

 Total:   352

 Net Charge: 0 (Nuclei minus Electrons)

 Aufbau principle for MO occupations will be applied through SCF cycle no.     150
 Thereafter, the program will assign electrons to MOs that are spatially
 similar to the occupied MOs in a "reference" cycle ("KeepOrbitals").
 The reference cycle is always the PREVIOUS cycle: it will evolve with
 the SCF procedure.
1
 ***************************************************************************************************



                                      ****************************************
                                      *  B U I L D : (Fragments, Functions)  *
                                      ****************************************
  

 The individual fragments are copies of the corresponding 'Master' fragments defined on the fragment files.
 However, they may have been rotated (and translated) with respect to the Master. The local coordinate axes
 of each fragment (which define for instance the spatial orientation in the current molecule of a fragment
 P:x orbital) are not necessarily those of the molecule.
 The local frame (if different from the molecular one) is printed to enable an interpretation of the expan-
 sion of an MO in Fragment Orbitals.



                                         *********************************
                                         *  Fragment Type : pdsubstrate  *
                                         *********************************
  

 Fragment no.    1   (in the list of all fragments)
 -----------------
 The local coordinate frame is identical to the molecular frame.

 Check Atomic Coordinates:

                  Master (on file)          After Computed Tranformation               As specified on Input
           ----------------------------     ----------------------------     ---------------------------------
     1)    -0.56184  -0.49351   0.26801     -0.56184  -0.49351   0.26801       1  -0.56184  -0.49351   0.26801
     2)     4.95959  -2.80353  -1.62629      4.95959  -2.80353  -1.62629      66   4.95959  -2.80353  -1.62629
     3)     5.22834  -0.41211  -2.87770      5.22834  -0.41211  -2.87770      67   5.22834  -0.41211  -2.87770
     4)     3.59973   1.60912  -2.29938      3.59973   1.60912  -2.29938      68   3.59973   1.60912  -2.29938
     5)     2.98594  -3.17350   0.16448      2.98594  -3.17350   0.16448      65   2.98594  -3.17350   0.16448
     6)     2.09185   5.04416   0.26175      2.09185   5.04416   0.26175      69   2.09185   5.04416   0.26175
     7)     0.32142  -2.47335   2.74559      0.32142  -2.47335   2.74559      59   0.32142  -2.47335   2.74559
     8)     2.80893  -1.92461   2.69622      2.80893  -1.92461   2.69622      60   2.80893  -1.92461   2.69622
     9)     1.42523   6.18462   0.72005      1.42523   6.18462   0.72005      70   1.42523   6.18462   0.72005
    10)     0.25156   1.30475   0.19495      0.25156   1.30475   0.19495      42   0.25156   1.30475   0.19495
    11)    -0.44606   2.41532   0.66032     -0.44606   2.41532   0.66032      43  -0.44606   2.41532   0.66032
    12)     0.11803   3.69233   0.69896      0.11803   3.69233   0.69896      45   0.11803   3.69233   0.69896
    13)     1.43396   3.86566   0.26958      1.43396   3.86566   0.26958      47   1.43396   3.86566   0.26958
    14)     2.15535   2.75584  -0.17550      2.15535   2.75584  -0.17550      48   2.15535   2.75584  -0.17550
    15)     1.59598   1.47257  -0.22044      1.59598   1.47257  -0.22044      50   1.59598   1.47257  -0.22044
    16)     2.45854   0.34414  -0.63653      2.45854   0.34414  -0.63653      51   2.45854   0.34414  -0.63653
    17)     3.44462   0.47529  -1.61929      3.44462   0.47529  -1.61929      52   3.44462   0.47529  -1.61929
    18)     4.30135  -0.57219  -1.94517      4.30135  -0.57219  -1.94517      53   4.30135  -0.57219  -1.94517
    19)     4.16893  -1.79625  -1.29726      4.16893  -1.79625  -1.29726      54   4.16893  -1.79625  -1.29726
    20)     3.16332  -1.96997  -0.35233      3.16332  -1.96997  -0.35233      55   3.16332  -1.96997  -0.35233
    21)     2.31721  -0.91181  -0.00056      2.31721  -0.91181  -0.00056      56   2.31721  -0.91181  -0.00056
    22)     1.16481  -0.06444   3.38630      1.16481  -0.06444   3.38630      61   1.16481  -0.06444   3.38630
    23)     2.13117   7.02030   0.63257      2.13117   7.02030   0.63257      71   2.13117   7.02030   0.63257
    24)     1.11904   6.08671   1.77711      1.11904   6.08671   1.77711      72   1.11904   6.08671   1.77711
    25)     0.52995   6.41073   0.11324      0.52995   6.41073   0.11324      73   0.52995   6.41073   0.11324
    26)    -1.46365   2.29806   1.02341     -1.46365   2.29806   1.02341      44  -1.46365   2.29806   1.02341
    27)    -0.47706   4.52613   1.07244     -0.47706   4.52613   1.07244      46  -0.47706   4.52613   1.07244
    28)     3.18970   2.92080  -0.47426      3.18970   2.92080  -0.47426      49   3.18970   2.92080  -0.47426
    29)     1.73317   0.74574   2.91076      1.73317   0.74574   2.91076      63   1.73317   0.74574   2.91076
    30)     1.56971  -0.29887   4.37932      1.56971  -0.29887   4.37932      64   1.56971  -0.29887   4.37932
    31)     1.24694  -1.13470   0.85426      1.24694  -1.13470   0.85426      57   1.24694  -1.13470   0.85426
    32)     1.42172  -1.57724   2.40716      1.42172  -1.57724   2.40716      58   1.42172  -1.57724   2.40716
    33)    -0.52695   0.40999   3.55696     -0.52695   0.40999   3.55696      62  -0.52695   0.40999   3.55696



                                            ****************************
                                            *  Fragment Type : ligand  *
                                            ****************************
  

 Fragment no.    2   (in the list of all fragments)
 -----------------
 The local coordinate frame is identical to the molecular frame.

 Check Atomic Coordinates:

                  Master (on file)          After Computed Tranformation               As specified on Input
           ----------------------------     ----------------------------     ---------------------------------
     1)    -0.74045  -1.84425  -2.33718     -0.74045  -1.84425  -2.33718      41  -0.74045  -1.84425  -2.33718
     2)    -3.71232   2.18729   0.72789     -3.71232   2.18729   0.72789       5  -3.71232   2.18729   0.72789
     3)    -4.58608   1.42055   2.06398     -4.58608   1.42055   2.06398       6  -4.58608   1.42055   2.06398
     4)    -2.83551   1.17136   1.90550     -2.83551   1.17136   1.90550       7  -2.83551   1.17136   1.90550
     5)    -5.69328  -0.77633  -0.71964     -5.69328  -0.77633  -0.71964       9  -5.69328  -0.77633  -0.71964
     6)    -5.54368   0.99564  -0.75177     -5.54368   0.99564  -0.75177      10  -5.54368   0.99564  -0.75177
     7)    -6.19925   0.18832   0.67930     -6.19925   0.18832   0.67930      11  -6.19925   0.18832   0.67930
     8)    -4.36671  -2.09594   1.14911     -4.36671  -2.09594   1.14911      13  -4.36671  -2.09594   1.14911
     9)    -3.07098  -1.23970   2.04084     -3.07098  -1.23970   2.04084      14  -3.07098  -1.23970   2.04084
    10)    -4.77614  -0.86921   2.35371     -4.77614  -0.86921   2.35371      15  -4.77614  -0.86921   2.35371
    11)    -1.13050   0.03658  -3.34506     -1.13050   0.03658  -3.34506      18  -1.13050   0.03658  -3.34506
    12)    -1.54771   1.71279  -3.73760     -1.54771   1.71279  -3.73760      19  -1.54771   1.71279  -3.73760
    13)    -0.68149   1.33841  -2.22505     -0.68149   1.33841  -2.22505      20  -0.68149   1.33841  -2.22505
    14)    -3.96347   1.17040  -4.01524     -3.96347   1.17040  -4.01524      22  -3.96347   1.17040  -4.01524
    15)    -3.65797  -0.53487  -3.66140     -3.65797  -0.53487  -3.66140      23  -3.65797  -0.53487  -3.66140
    16)    -4.89185   0.35703  -2.74224     -4.89185   0.35703  -2.74224      24  -4.89185   0.35703  -2.74224
    17)    -3.14459   2.97356  -2.62109     -3.14459   2.97356  -2.62109      26  -3.14459   2.97356  -2.62109
    18)    -4.16397   2.39419  -1.29619     -4.16397   2.39419  -1.29619      27  -4.16397   2.39419  -1.29619
    19)    -2.41797   2.69634  -1.03038     -2.41797   2.69634  -1.03038      28  -2.41797   2.69634  -1.03038
    20)    -4.53670  -2.15532  -2.39607     -4.53670  -2.15532  -2.39607      31  -4.53670  -2.15532  -2.39607
    21)    -4.67957  -2.71510  -0.71369     -4.67957  -2.71510  -0.71369      32  -4.67957  -2.71510  -0.71369
    22)    -3.88553  -3.73547  -1.92135     -3.88553  -3.73547  -1.92135      33  -3.88553  -3.73547  -1.92135
    23)    -1.87217  -3.94333  -0.46138     -1.87217  -3.94333  -0.46138      35  -1.87217  -3.94333  -0.46138
    24)    -2.49242  -2.87439   0.80547     -2.49242  -2.87439   0.80547      36  -2.49242  -2.87439   0.80547
    25)    -0.90960  -2.58420   0.03187     -0.90960  -2.58420   0.03187      37  -0.90960  -2.58420   0.03187
    26)    -1.62538  -3.33889  -2.70303     -1.62538  -3.33889  -2.70303      39  -1.62538  -3.33889  -2.70303
    27)    -2.16243  -1.81251  -3.41989     -2.16243  -1.81251  -3.41989      40  -2.16243  -1.81251  -3.41989
    28)    -2.63163  -0.26311  -0.70998     -2.63163  -0.26311  -0.70998       2  -2.63163  -0.26311  -0.70998
    29)    -4.05830   0.00627   0.52973     -4.05830   0.00627   0.52973       3  -4.05830   0.00627   0.52973
    30)    -3.77003   1.27875   1.33681     -3.77003   1.27875   1.33681       4  -3.77003   1.27875   1.33681
    31)    -5.44103   0.10560  -0.11696     -5.44103   0.10560  -0.11696       8  -5.44103   0.10560  -0.11696
    32)    -4.05576  -1.12846   1.56118     -4.05576  -1.12846   1.56118      12  -4.05576  -1.12846   1.56118
    33)    -2.82427   0.89309  -2.20965     -2.82427   0.89309  -2.20965      16  -2.82427   0.89309  -2.20965
    34)    -1.46269   0.98617  -2.91321     -1.46269   0.98617  -2.91321      17  -1.46269   0.98617  -2.91321
    35)    -3.89669   0.43162  -3.19967     -3.89669   0.43162  -3.19967      21  -3.89669   0.43162  -3.19967
    36)    -3.16343   2.31222  -1.73985     -3.16343   2.31222  -1.73985      25  -3.16343   2.31222  -1.73985
    37)    -2.64824  -2.09339  -1.28236     -2.64824  -2.09339  -1.28236      29  -2.64824  -2.09339  -1.28236
    38)    -4.01928  -2.69225  -1.58981     -4.01928  -2.69225  -1.58981      30  -4.01928  -2.69225  -1.58981
    39)    -1.96577  -2.88920  -0.15171     -1.96577  -2.88920  -0.15171      34  -1.96577  -2.88920  -0.15171
    40)    -1.74452  -2.26042  -2.50993     -1.74452  -2.26042  -2.50993      38  -1.74452  -2.26042  -2.50993

 Total nr. of (C)SFOs (summation over all irreps) :  1003

 Specify PRINT SFO in the input file to get a full list

 Nr. of SFOs for ir.rep.           A :  1003



 ================================
 (Slater-type)  F U N C T I O N S  ***  (Basis and Fit)  ***
 ================================
  

 Atom Type    1  (Pd)
 ==============

 Valence Basis Sets:  26
 -----------------------
   1 S  306.000000
   1 S   76.400000
   1 S   45.900000
   2 S   53.800000
   2 S   19.550000
   3 S   10.150000
   3 S    6.650000
   4 S    6.150000
   4 S    3.900000
   5 S    2.500000
   5 S    1.450000
   5 S    0.850000
   2 P   29.100000
   2 P   18.750000
   3 P   11.250000
   3 P    8.100000
   4 P    5.950000
   4 P    3.950000
   4 P    2.700000
   3 D   17.550000
   3 D   10.450000
   3 D    6.900000
   4 D    4.250000
   4 D    2.200000
   4 D    1.100000
   5 P    1.450000

 Charge Fitting Sets (for the computation of the Coulomb Potential):  58
 -----------------------------------------------------------------------
   1 S  612.000000
   1 S  446.101000
   1 S  325.174000
   1 S  237.027000
   1 S  172.774000
   1 S  125.939000
   1 S   91.800000
   1 S   53.670000
   2 S   58.190000
   2 S   38.430000
   3 S   37.300000
   3 S   26.280000
   4 S   24.500000
   4 S   18.000000
   5 S   16.470000
   5 S   12.460000
   6 S   11.300000
   6 S    8.740000
   7 S    7.890000
   7 S    6.210000
   8 S    5.590000
   8 S    4.470000
   8 S    3.570000
   9 S    3.210000
   9 S    2.600000
   9 S    2.100000
   9 S    1.700000
   2 P   64.650000
   3 P   49.410000
   4 P   37.530000
   5 P   28.620000
   6 P   21.980000
   6 P   14.500000
   7 P   11.220000
   7 P    7.620000
   8 P    5.940000
   8 P    4.130000
   9 P    3.240000
   9 P    2.300000
   3 D   56.350000
   4 D   37.260000
   5 D   25.120000
   6 D   17.230000
   6 D   10.190000
   7 D    7.110000
   7 D    4.360000
   8 D    3.090000
   8 D    1.950000
   4 F   47.900000
   5 F   28.270000
   6 F   17.190000
   6 F    9.040000
   7 F    5.640000
   7 F    3.100000
   5 G   20.900000
   6 G    9.980000
   7 G    4.980000
   7 G    2.200000

 Atom Type    2  (F)
 ==============

 Valence Basis Sets:   9
 -----------------------
   1 S   10.880000
   1 S    7.700000
   2 S    3.240000
   2 S    1.940000
   2 S    0.740000
   2 P    4.540000
   2 P    2.300000
   2 P    1.240000
   3 D    2.000000

 Charge Fitting Sets (for the computation of the Coulomb Potential):  23
 -----------------------------------------------------------------------
   1 S   21.760000
   2 S   24.390000
   2 S   16.560000
   2 S   11.240000
   2 S    7.630000
   3 S    7.600000
   3 S    5.480000
   3 S    3.950000
   3 S    2.850000
   3 S    2.050000
   3 S    1.480000
   2 P   14.400000
   2 P    7.530000
   3 P    5.900000
   3 P    3.420000
   3 P    1.980000
   3 D    9.700000
   3 D    6.160000
   3 D    3.910000
   3 D    2.480000
   4 F    6.500000
   4 F    3.750000
   5 G    4.500000

 Atom Type    3  (O)
 ==============

 Valence Basis Sets:   9
 -----------------------
   1 S    9.800000
   1 S    6.800000
   2 S    7.580000
   2 S    2.880000
   2 S    1.720000
   2 P    4.080000
   2 P    2.080000
   2 P    1.120000
   3 D    2.000000

 Charge Fitting Sets (for the computation of the Coulomb Potential):  22
 -----------------------------------------------------------------------
   1 S   19.600000
   2 S   22.600000
   2 S   15.680000
   2 S   10.890000
   2 S    7.560000
   3 S    7.690000
   3 S    5.650000
   3 S    4.150000
   3 S    3.050000
   3 S    2.240000
   2 P   12.860000
   2 P    7.680000
   3 P    6.780000
   3 P    4.390000
   3 P    2.840000
   3 D    8.800000
   3 D    5.580000
   3 D    3.530000
   3 D    2.240000
   4 F    6.200000
   4 F    3.700000
   5 G    4.500000

 Atom Type    4  (C)
 ==============

 Valence Basis Sets:   9
 -----------------------
   1 S    7.680000
   1 S    5.000000
   2 S    1.280000
   2 S    2.100000
   2 S    4.600000
   2 P    0.820000
   2 P    1.480000
   2 P    2.940000
   3 D    2.200000

 Charge Fitting Sets (for the computation of the Coulomb Potential):  22
 -----------------------------------------------------------------------
   1 S   15.360000
   2 S   17.530000
   2 S   12.070000
   2 S    8.310000
   2 S    5.730000
   3 S    5.780000
   3 S    4.220000
   3 S    3.080000
   3 S    2.250000
   3 S    1.640000
   2 P    9.880000
   2 P    5.800000
   3 P    5.050000
   3 P    3.230000
   3 P    2.060000
   3 D    7.200000
   3 D    4.400000
   3 D    2.690000
   3 D    1.640000
   4 F    5.400000
   4 F    3.550000
   5 G    4.500000

 Atom Type    5  (H)
 ==============

 Valence Basis Sets:   4
 -----------------------
   1 S    0.690000
   1 S    0.920000
   1 S    1.580000
   2 P    1.250000

 Charge Fitting Sets (for the computation of the Coulomb Potential):  11
 -----------------------------------------------------------------------
   1 S    3.160000
   1 S    2.090000
   1 S    1.380000
   2 S    1.500000
   2 P    4.000000
   2 P    2.650000
   2 P    1.750000
   3 D    4.000000
   3 D    2.500000
   4 F    3.000000
   5 G    4.000000

 Atom Type    6  (N)
 ==============

 Valence Basis Sets:   9
 -----------------------
   1 S    8.740000
   1 S    5.900000
   2 S    5.150000
   2 S    2.500000
   2 S    1.500000
   2 P    3.680000
   2 P    1.880000
   2 P    1.000000
   3 D    2.200000

 Charge Fitting Sets (for the computation of the Coulomb Potential):  22
 -----------------------------------------------------------------------
   1 S   17.480000
   2 S   20.150000
   2 S   13.990000
   2 S    9.710000
   2 S    6.740000
   3 S    6.860000
   3 S    5.040000
   3 S    3.700000
   3 S    2.720000
   3 S    2.000000
   2 P   11.320000
   2 P    6.730000
   3 P    5.920000
   3 P    3.820000
   3 P    2.460000
   3 D    8.100000
   3 D    5.080000
   3 D    3.190000
   3 D    2.000000
   4 F    5.800000
   4 F    3.600000
   5 G    4.500000

 Atom Type    7  (S)
 ==============

 Valence Basis Sets:  13
 -----------------------
   1 S   19.400000
   1 S   14.350000
   2 S    5.900000
   2 S    4.250000
   2 P    8.050000
   2 P    4.550000
   3 S    3.450000
   3 S    2.250000
   3 S    1.500000
   3 P    2.650000
   3 P    1.600000
   3 P    1.000000
   3 D    2.100000

 Charge Fitting Sets (for the computation of the Coulomb Potential):  30
 -----------------------------------------------------------------------
   1 S   38.800000
   1 S   23.350000
   2 S   26.020000
   2 S   17.570000
   3 S   17.420000
   3 S   12.500000
   3 S    8.980000
   4 S    8.520000
   4 S    6.360000
   4 S    4.750000
   5 S    4.420000
   5 S    3.390000
   5 S    2.600000
   5 S    2.000000
   2 P   27.450000
   3 P   20.250000
   4 P   14.920000
   4 P    8.780000
   5 P    6.520000
   5 P    4.040000
   5 P    2.500000
   3 D   20.900000
   4 D   14.560000
   4 D    8.130000
   5 D    5.740000
   5 D    3.390000
   5 D    2.000000
   4 F    5.000000
   4 F    3.000000
   5 G    3.620000

 Atom Type    8  (Cl)
 ==============

 Valence Basis Sets:  13
 -----------------------
   1 S   20.300000
   1 S   15.250000
   2 S    6.250000
   2 S    4.450000
   2 P    8.850000
   2 P    5.050000
   3 S    3.450000
   3 S    2.300000
   3 S    1.600000
   3 P    3.350000
   3 P    2.050000
   3 P    1.200000
   3 D    2.000000

 Charge Fitting Sets (for the computation of the Coulomb Potential):  30
 -----------------------------------------------------------------------
   1 S   40.600000
   1 S   24.830000
   2 S   28.080000
   2 S   19.200000
   3 S   19.250000
   3 S   13.970000
   3 S   10.130000
   4 S    9.710000
   4 S    7.320000
   4 S    5.510000
   5 S    5.170000
   5 S    4.000000
   5 S    3.100000
   5 S    2.400000
   2 P   29.150000
   3 P   21.740000
   4 P   16.160000
   4 P    9.600000
   5 P    7.180000
   5 P    4.480000
   5 P    2.800000
   3 D   21.950000
   4 D   15.750000
   4 D    9.040000
   5 D    6.550000
   5 D    3.960000
   5 D    2.400000
   4 F    5.000000
   4 F    3.000000
   5 G    3.500000

 Atom Type    9  (H)
 ==============

 Valence Basis Sets:   4
 -----------------------
   1 S    0.690000
   1 S    0.920000
   1 S    1.580000
   2 P    1.250000

 Charge Fitting Sets (for the computation of the Coulomb Potential):  11
 -----------------------------------------------------------------------
   1 S    3.160000
   1 S    2.090000
   1 S    1.380000
   2 S    1.500000
   2 P    4.000000
   2 P    2.650000
   2 P    1.750000
   3 D    4.000000
   3 D    2.500000
   4 F    3.000000
   5 G    4.000000

 Atom Type   10  (P)
 ==============

 Valence Basis Sets:  13
 -----------------------
   1 S   18.000000
   1 S   13.350000
   2 S    5.600000
   2 S    4.050000
   2 P    7.450000
   2 P    4.100000
   3 S    2.700000
   3 S    1.850000
   3 S    1.300000
   3 P    2.300000
   3 P    1.350000
   3 P    0.850000
   3 D    1.900000

 Charge Fitting Sets (for the computation of the Coulomb Potential):  30
 -----------------------------------------------------------------------
   1 S   36.000000
   1 S   21.450000
   2 S   23.670000
   2 S   15.860000
   3 S   15.600000
   3 S   11.130000
   3 S    7.940000
   4 S    7.490000
   4 S    5.560000
   4 S    4.130000
   5 S    3.810000
   5 S    2.910000
   5 S    2.230000
   5 S    1.700000
   2 P   25.450000
   3 P   18.490000
   4 P   13.440000
   4 P    7.810000
   5 P    5.730000
   5 P    3.510000
   5 P    2.150000
   3 D   19.350000
   4 D   13.230000
   4 D    7.250000
   5 D    5.040000
   5 D    2.930000
   5 D    1.700000
   4 F    5.000000
   4 F    3.000000
   5 G    3.750000

 Atom Type   11  (C)
 ==============

 Valence Basis Sets:   9
 -----------------------
   1 S    7.680000
   1 S    5.000000
   2 S    1.280000
   2 S    2.100000
   2 S    4.600000
   2 P    0.820000
   2 P    1.480000
   2 P    2.940000
   3 D    2.200000

 Charge Fitting Sets (for the computation of the Coulomb Potential):  22
 -----------------------------------------------------------------------
   1 S   15.360000
   2 S   17.530000
   2 S   12.070000
   2 S    8.310000
   2 S    5.730000
   3 S    5.780000
   3 S    4.220000
   3 S    3.080000
   3 S    2.250000
   3 S    1.640000
   2 P    9.880000
   2 P    5.800000
   3 P    5.050000
   3 P    3.230000
   3 P    2.060000
   3 D    7.200000
   3 D    4.400000
   3 D    2.690000
   3 D    1.640000
   4 F    5.400000
   4 F    3.550000
   5 G    4.500000


 BAS: List of all Elementary Cartesian Basis Functions
 =====================================================

 The numbering in the list below (to the right of the function characteristics) is referred
 to in print-outs of MO eigenvectors and Mulliken populations in the BAS representation
 (as contrasted to the SFO representation).

 Notes:
 1. The functions are characterized by a polynomial prefactor (powers of x,y,z and r) and
    an exponential decay factor alpha.
 2. Since the basis sets are specific for an atom TYPE, the individual functions occur on
    all atoms of that type.
 3. The word 'Core' in the left margin signals that it is a Core Function (CF) : not a
    degree of freedom in the valence set, but only used to ensure orthogonalization of
    the other valence basis functions on the frozen Core Orbitals.


 (power of) X  Y  Z  R     Alpha  on Atom
            ==========     =====     ==========

 Pd                                   1
                                  ---------------------------------------------------------------------------
            0  0  0  0   306.000      1
            0  0  0  0    76.400      2
            0  0  0  0    45.900      3
            0  0  0  1    53.800      4
            0  0  0  1    19.550      5
            0  0  0  2    10.150      6
            0  0  0  2     6.650      7
            0  0  0  3     6.150      8
            0  0  0  3     3.900      9
            0  0  0  4     2.500     10
            0  0  0  4     1.450     11
            0  0  0  4     0.850     12
            1  0  0  0    29.100     13
            0  1  0  0    29.100     14
            0  0  1  0    29.100     15
            1  0  0  0    18.750     16
            0  1  0  0    18.750     17
            0  0  1  0    18.750     18
            1  0  0  1    11.250     19
            0  1  0  1    11.250     20
            0  0  1  1    11.250     21
            1  0  0  1     8.100     22
            0  1  0  1     8.100     23
            0  0  1  1     8.100     24
            1  0  0  2     5.950     25
            0  1  0  2     5.950     26
            0  0  1  2     5.950     27
            1  0  0  2     3.950     28
            0  1  0  2     3.950     29
            0  0  1  2     3.950     30
            1  0  0  2     2.700     31
            0  1  0  2     2.700     32
            0  0  1  2     2.700     33
            2  0  0  0    17.550     34
            1  1  0  0    17.550     35
            1  0  1  0    17.550     36
            0  2  0  0    17.550     37
            0  1  1  0    17.550     38
            0  0  2  0    17.550     39
            2  0  0  0    10.450     40
            1  1  0  0    10.450     41
            1  0  1  0    10.450     42
            0  2  0  0    10.450     43
            0  1  1  0    10.450     44
            0  0  2  0    10.450     45
            2  0  0  0     6.900     46
            1  1  0  0     6.900     47
            1  0  1  0     6.900     48
            0  2  0  0     6.900     49
            0  1  1  0     6.900     50
            0  0  2  0     6.900     51
            2  0  0  1     4.250     52
            1  1  0  1     4.250     53
            1  0  1  1     4.250     54
            0  2  0  1     4.250     55
            0  1  1  1     4.250     56
            0  0  2  1     4.250     57
            2  0  0  1     2.200     58
            1  1  0  1     2.200     59
            1  0  1  1     2.200     60
            0  2  0  1     2.200     61
            0  1  1  1     2.200     62
            0  0  2  1     2.200     63
            2  0  0  1     1.100     64
            1  1  0  1     1.100     65
            1  0  1  1     1.100     66
            0  2  0  1     1.100     67
            0  1  1  1     1.100     68
            0  0  2  1     1.100     69
            1  0  0  3     1.450     70
            0  1  0  3     1.450     71
            0  0  1  3     1.450     72

 F                                    2    3    4    5
                                  ---------------------------------------------------------------------------
            0  0  0  0    10.880     73   93  113  133
            0  0  0  0     7.700     74   94  114  134
            0  0  0  1     3.240     75   95  115  135
            0  0  0  1     1.940     76   96  116  136
            0  0  0  1     0.740     77   97  117  137
            1  0  0  0     4.540     78   98  118  138
            0  1  0  0     4.540     79   99  119  139
            0  0  1  0     4.540     80  100  120  140
            1  0  0  0     2.300     81  101  121  141
            0  1  0  0     2.300     82  102  122  142
            0  0  1  0     2.300     83  103  123  143
            1  0  0  0     1.240     84  104  124  144
            0  1  0  0     1.240     85  105  125  145
            0  0  1  0     1.240     86  106  126  146
            2  0  0  0     2.000     87  107  127  147
            1  1  0  0     2.000     88  108  128  148
            1  0  1  0     2.000     89  109  129  149
            0  2  0  0     2.000     90  110  130  150
            0  1  1  0     2.000     91  111  131  151
            0  0  2  0     2.000     92  112  132  152

 O                                    6    7    8
                                  ---------------------------------------------------------------------------
            0  0  0  0     9.800    153  173  193
            0  0  0  0     6.800    154  174  194
            0  0  0  1     7.580    155  175  195
            0  0  0  1     2.880    156  176  196
            0  0  0  1     1.720    157  177  197
            1  0  0  0     4.080    158  178  198
            0  1  0  0     4.080    159  179  199
            0  0  1  0     4.080    160  180  200
            1  0  0  0     2.080    161  181  201
            0  1  0  0     2.080    162  182  202
            0  0  1  0     2.080    163  183  203
            1  0  0  0     1.120    164  184  204
            0  1  0  0     1.120    165  185  205
            0  0  1  0     1.120    166  186  206
            2  0  0  0     2.000    167  187  207
            1  1  0  0     2.000    168  188  208
            1  0  1  0     2.000    169  189  209
            0  2  0  0     2.000    170  190  210
            0  1  1  0     2.000    171  191  211
            0  0  2  0     2.000    172  192  212

 C                                    9   10   11   12   13   14   15   16   17   18   19   20   21   22
                                  ---------------------------------------------------------------------------
            0  0  0  0     7.680    213  233  253  273  293  313  333  353  373  393  413  433  453  473
            0  0  0  0     5.000    214  234  254  274  294  314  334  354  374  394  414  434  454  474
            0  0  0  1     1.280    215  235  255  275  295  315  335  355  375  395  415  435  455  475
            0  0  0  1     2.100    216  236  256  276  296  316  336  356  376  396  416  436  456  476
            0  0  0  1     4.600    217  237  257  277  297  317  337  357  377  397  417  437  457  477
            1  0  0  0     0.820    218  238  258  278  298  318  338  358  378  398  418  438  458  478
            0  1  0  0     0.820    219  239  259  279  299  319  339  359  379  399  419  439  459  479
            0  0  1  0     0.820    220  240  260  280  300  320  340  360  380  400  420  440  460  480
            1  0  0  0     1.480    221  241  261  281  301  321  341  361  381  401  421  441  461  481
            0  1  0  0     1.480    222  242  262  282  302  322  342  362  382  402  422  442  462  482
            0  0  1  0     1.480    223  243  263  283  303  323  343  363  383  403  423  443  463  483
            1  0  0  0     2.940    224  244  264  284  304  324  344  364  384  404  424  444  464  484
            0  1  0  0     2.940    225  245  265  285  305  325  345  365  385  405  425  445  465  485
            0  0  1  0     2.940    226  246  266  286  306  326  346  366  386  406  426  446  466  486
            2  0  0  0     2.200    227  247  267  287  307  327  347  367  387  407  427  447  467  487
            1  1  0  0     2.200    228  248  268  288  308  328  348  368  388  408  428  448  468  488
            1  0  1  0     2.200    229  249  269  289  309  329  349  369  389  409  429  449  469  489
            0  2  0  0     2.200    230  250  270  290  310  330  350  370  390  410  430  450  470  490
            0  1  1  0     2.200    231  251  271  291  311  331  351  371  391  411  431  451  471  491
            0  0  2  0     2.200    232  252  272  292  312  332  352  372  392  412  432  452  472  492

 H                                   23   24   25   26   27   28   29   30
                                  ---------------------------------------------------------------------------
            0  0  0  0     0.690    493  499  505  511  517  523  529  535
            0  0  0  0     0.920    494  500  506  512  518  524  530  536
            0  0  0  0     1.580    495  501  507  513  519  525  531  537
            1  0  0  0     1.250    496  502  508  514  520  526  532  538
            0  1  0  0     1.250    497  503  509  515  521  527  533  539
            0  0  1  0     1.250    498  504  510  516  522  528  534  540

 N                                   31
                                  ---------------------------------------------------------------------------
            0  0  0  0     8.740    541
            0  0  0  0     5.900    542
            0  0  0  1     5.150    543
            0  0  0  1     2.500    544
            0  0  0  1     1.500    545
            1  0  0  0     3.680    546
            0  1  0  0     3.680    547
            0  0  1  0     3.680    548
            1  0  0  0     1.880    549
            0  1  0  0     1.880    550
            0  0  1  0     1.880    551
            1  0  0  0     1.000    552
            0  1  0  0     1.000    553
            0  0  1  0     1.000    554
            2  0  0  0     2.200    555
            1  1  0  0     2.200    556
            1  0  1  0     2.200    557
            0  2  0  0     2.200    558
            0  1  1  0     2.200    559
            0  0  2  0     2.200    560

 S                                   32
                                  ---------------------------------------------------------------------------
            0  0  0  0    19.400    561
            0  0  0  0    14.350    562
            0  0  0  1     5.900    563
            0  0  0  1     4.250    564
            1  0  0  0     8.050    565
            0  1  0  0     8.050    566
            0  0  1  0     8.050    567
            1  0  0  0     4.550    568
            0  1  0  0     4.550    569
            0  0  1  0     4.550    570
            0  0  0  2     3.450    571
            0  0  0  2     2.250    572
            0  0  0  2     1.500    573
            1  0  0  1     2.650    574
            0  1  0  1     2.650    575
            0  0  1  1     2.650    576
            1  0  0  1     1.600    577
            0  1  0  1     1.600    578
            0  0  1  1     1.600    579
            1  0  0  1     1.000    580
            0  1  0  1     1.000    581
            0  0  1  1     1.000    582
            2  0  0  0     2.100    583
            1  1  0  0     2.100    584
            1  0  1  0     2.100    585
            0  2  0  0     2.100    586
            0  1  1  0     2.100    587
            0  0  2  0     2.100    588

 Cl                                  33
                                  ---------------------------------------------------------------------------
            0  0  0  0    20.300    589
            0  0  0  0    15.250    590
            0  0  0  1     6.250    591
            0  0  0  1     4.450    592
            1  0  0  0     8.850    593
            0  1  0  0     8.850    594
            0  0  1  0     8.850    595
            1  0  0  0     5.050    596
            0  1  0  0     5.050    597
            0  0  1  0     5.050    598
            0  0  0  2     3.450    599
            0  0  0  2     2.300    600
            0  0  0  2     1.600    601
            1  0  0  1     3.350    602
            0  1  0  1     3.350    603
            0  0  1  1     3.350    604
            1  0  0  1     2.050    605
            0  1  0  1     2.050    606
            0  0  1  1     2.050    607
            1  0  0  1     1.200    608
            0  1  0  1     1.200    609
            0  0  1  1     1.200    610
            2  0  0  0     2.000    611
            1  1  0  0     2.000    612
            1  0  1  0     2.000    613
            0  2  0  0     2.000    614
            0  1  1  0     2.000    615
            0  0  2  0     2.000    616

 H                                   34   35   36   37   38   39   40   41   42   43   44   45   46   47   48
                                     49   50   51   52   53   54   55   56   57   58   59   60
                                  ---------------------------------------------------------------------------
            0  0  0  0     0.690    617  623  629  635  641  647  653  659  665  671  677  683  689  695  701
                                    707  713  719  725  731  737  743  749  755  761  767  773
            0  0  0  0     0.920    618  624  630  636  642  648  654  660  666  672  678  684  690  696  702
                                    708  714  720  726  732  738  744  750  756  762  768  774
            0  0  0  0     1.580    619  625  631  637  643  649  655  661  667  673  679  685  691  697  703
                                    709  715  721  727  733  739  745  751  757  763  769  775
            1  0  0  0     1.250    620  626  632  638  644  650  656  662  668  674  680  686  692  698  704
                                    710  716  722  728  734  740  746  752  758  764  770  776
            0  1  0  0     1.250    621  627  633  639  645  651  657  663  669  675  681  687  693  699  705
                                    711  717  723  729  735  741  747  753  759  765  771  777
            0  0  1  0     1.250    622  628  634  640  646  652  658  664  670  676  682  688  694  700  706
                                    712  718  724  730  736  742  748  754  760  766  772  778

 P                                   61
                                  ---------------------------------------------------------------------------
            0  0  0  0    18.000    779
            0  0  0  0    13.350    780
            0  0  0  1     5.600    781
            0  0  0  1     4.050    782
            1  0  0  0     7.450    783
            0  1  0  0     7.450    784
            0  0  1  0     7.450    785
            1  0  0  0     4.100    786
            0  1  0  0     4.100    787
            0  0  1  0     4.100    788
            0  0  0  2     2.700    789
            0  0  0  2     1.850    790
            0  0  0  2     1.300    791
            1  0  0  1     2.300    792
            0  1  0  1     2.300    793
            0  0  1  1     2.300    794
            1  0  0  1     1.350    795
            0  1  0  1     1.350    796
            0  0  1  1     1.350    797
            1  0  0  1     0.850    798
            0  1  0  1     0.850    799
            0  0  1  1     0.850    800
            2  0  0  0     1.900    801
            1  1  0  0     1.900    802
            1  0  1  0     1.900    803
            0  2  0  0     1.900    804
            0  1  1  0     1.900    805
            0  0  2  0     1.900    806

 C                                   62   63   64   65   66   67   68   69   70   71   72   73
                                  ---------------------------------------------------------------------------
            0  0  0  0     7.680    807  827  847  867  887  907  927  947  967  987 1007 1027
            0  0  0  0     5.000    808  828  848  868  888  908  928  948  968  988 1008 1028
            0  0  0  1     1.280    809  829  849  869  889  909  929  949  969  989 1009 1029
            0  0  0  1     2.100    810  830  850  870  890  910  930  950  970  990 1010 1030
            0  0  0  1     4.600    811  831  851  871  891  911  931  951  971  991 1011 1031
            1  0  0  0     0.820    812  832  852  872  892  912  932  952  972  992 1012 1032
            0  1  0  0     0.820    813  833  853  873  893  913  933  953  973  993 1013 1033
            0  0  1  0     0.820    814  834  854  874  894  914  934  954  974  994 1014 1034
            1  0  0  0     1.480    815  835  855  875  895  915  935  955  975  995 1015 1035
            0  1  0  0     1.480    816  836  856  876  896  916  936  956  976  996 1016 1036
            0  0  1  0     1.480    817  837  857  877  897  917  937  957  977  997 1017 1037
            1  0  0  0     2.940    818  838  858  878  898  918  938  958  978  998 1018 1038
            0  1  0  0     2.940    819  839  859  879  899  919  939  959  979  999 1019 1039
            0  0  1  0     2.940    820  840  860  880  900  920  940  960  980 1000 1020 1040
            2  0  0  0     2.200    821  841  861  881  901  921  941  961  981 1001 1021 1041
            1  1  0  0     2.200    822  842  862  882  902  922  942  962  982 1002 1022 1042
            1  0  1  0     2.200    823  843  863  883  903  923  943  963  983 1003 1023 1043
            0  2  0  0     2.200    824  844  864  884  904  924  944  964  984 1004 1024 1044
            0  1  1  0     2.200    825  845  865  885  905  925  945  965  985 1005 1025 1045
            0  0  2  0     2.200    826  846  866  886  906  926  946  966  986 1006 1026 1046

 Total number of charge fitting functions (nprimf)      5165
 Total number of Cartesian basis functions (naos)       1046
 Total number of Cartesian core functions  (ncos)          0

1
 ***************************************************************************************************



                                              ***********************
                                              *  T E C H N I C A L  *
                                              ***********************
  



 =============================================================
 P A R A L L E L I Z A T I O N  and  V E C T O R I Z A T I O N
 =============================================================
  
 Nr of parallel processes:                               16
 Maximum vector length in NumInt loops:                 128



 =====================
 S C F   U P D A T E S
 =====================
  
 Max. nr. of cycles:                               300
 Convergence criterion:                              0.0000010000
   secondary criterion:                              0.0010000000

 Mix parameter (when DIIS does not apply):           0.2000000000
 Mixed ADIIS+SDIIS will be used                  
    Max number of expansion vectors:                10
    Pure ADIIS when Max([F,P]) is above              0.1000000000
    Pure SDIIS when Max([F,P]) is below              0.0010000000
 Automatic ElectronSmearing (in case of problematic SCF convergence) disabled



 =================
 P R E C I S I O N  ***  (General: NumInt, NeglectFunctionTails, ...)  ***
 =================
  

 NumInt:           Target precision:                 8.0000000000
 -------           Initial precision:                8.0000000000
                   Min. precision (optimization):    8.0000000000

 Neglect Functions:          Basis functions:        0.1000000000E-09
 ------------------          Fit functions:          0.1000000000E-09



 ===========================
 L I N E A R   S C A L I N G
 ===========================
  

 Cut-off radii density fit:                        0.1000000000E-11
 Overlap cut-off criterion AO matrix elements:     0.1000000000E-09
 Cut-offs for Coulomb potential and fitted density:0.1000000000E-11
 Cut-off criterion for Coulomb multipole terms:    0.1000000000E-11
 Progressive Convergence parameter:                 0.000000000    
1
 ***************************************************************************************************



                                            ***************************
                                            *  C O M P U T A T I O N  *
                                            ***************************
  

 Number of elements of the density matrix on this node (used, total):     34334    547581



 ===========================================
 Numerical Integration : Fuzzy Cells (Becke)
 ===========================================
  
 Becke grid quality: VERYGOOD       
  
 Lebedev angular grid order:             min:  13 max:  41
 Nr. of radial points:                   min:  64 max: 183

 Total nr. of points:    1765487
 Nr. of blocks:            13793
 Block length:               128
 Nr. of dummy points:         17


 Test of Precision of the Numerical Integration Grid
 ===================================================

 Integral of the Total Core Density:                   0.00000000000000



 ========================
 Density Fitting (zlmFit)
 ========================
  
 ZlmFit Fit Quality: VERYGOOD       
  
 Max L-expansion:                        min:   9 max:  10
 Nr. of radial interpolation points:     min: 120 max: 400



 ======================
 RI Hartree-Fock Scheme
 ======================
  
 Fit Set Quality     : VERYGOOD
 Threshold Quality   : VERYGOOD
 Integration Quality : VERYGOOD
 Fit Generation Method : AUTO
 Response Quality    : DEFAULT
 Is Range Separated  :  F
 
 RIHartreeFock Dependency: number of modified vectors:          64



 =====
 S C F  ***  ScaSCF  ***
 =====
  
 Initial density matrix is calculated as sum of fragments

 CYCLE    1
 SCF Error: norm([F,P])=      3.888571190942, max([F,P])=      2.185648125893
 orbitals (Q,E):
 ---------------
 A :167...186        ( 2.00    -0.3118)  ( 2.00    -0.3071)  ( 2.00    -0.3010)  ( 2.00    -0.2910)
                     ( 2.00    -0.2876)  ( 2.00    -0.2780)  ( 2.00    -0.2607)  ( 2.00    -0.2514)
                     ( 2.00    -0.2381)  ( 2.00    -0.2300)  ( 0.00    -0.0661)  ( 0.00    -0.0549)
                     ( 0.00    -0.0240)  ( 0.00    -0.0152)  ( 0.00    -0.0050)  ( 0.00    -0.0011)
                     ( 0.00     0.0042)  ( 0.00     0.0076)  ( 0.00     0.0119)  ( 0.00     0.0167)

 CYCLE    2
   MIX coefficients:  0.8000  0.2000
 SCF Error: norm([F,P])=      0.297064570847, max([F,P])=      0.041257867839
 orbitals (Q,E):
 ---------------
 A :167...177        ( 2.00    -0.3110)  ( 2.00    -0.3080)  ( 2.00    -0.3014)  ( 2.00    -0.2987)
                     ( 2.00    -0.2877)  ( 2.00    -0.2843)  ( 2.00    -0.2574)  ( 2.00    -0.2557)
                     ( 2.00    -0.2401)  ( 2.00    -0.2297)  ( 0.00    -0.0709)

 CYCLE    3
  SDIIS (wt  0.000): -0.3870  1.3870
 A-DIIS (wt  1.000):  0.0000  1.0000
  DIIS coefficients:  0.0000  1.0000
 SCF Error: norm([F,P])=      0.103768467041, max([F,P])=      0.019193739195
 orbitals (Q,E):
 ---------------
 A :167...177        ( 2.00    -0.3112)  ( 2.00    -0.3094)  ( 2.00    -0.2944)  ( 2.00    -0.2891)
                     ( 2.00    -0.2818)  ( 2.00    -0.2756)  ( 2.00    -0.2605)  ( 2.00    -0.2434)
                     ( 2.00    -0.2299)  ( 2.00    -0.2209)  ( 0.00    -0.0693)

 CYCLE    4
  SDIIS (wt  0.000):  0.4469 -0.0820  0.6351
 A-DIIS (wt  1.000):  0.0000  0.6421  0.3579
  DIIS coefficients:  0.0000  0.6421  0.3579
 SCF Error: norm([F,P])=      0.198414810487, max([F,P])=      0.023154687074
 orbitals (Q,E):
 ---------------
 A :167...177        ( 2.00    -0.3057)  ( 2.00    -0.3005)  ( 2.00    -0.2945)  ( 2.00    -0.2901)
                     ( 2.00    -0.2821)  ( 2.00    -0.2760)  ( 2.00    -0.2517)  ( 2.00    -0.2460)
                     ( 2.00    -0.2316)  ( 2.00    -0.2221)  ( 0.00    -0.0630)

 CYCLE    5
  SDIIS (wt  0.911): -0.5348  0.8253 -0.2172  0.9267
 A-DIIS (wt  0.089):  0.0000  0.0000  0.0334  0.9666
  DIIS coefficients: -0.4870  0.7515 -0.1948  0.9302
 SCF Error: norm([F,P])=      0.057944231885, max([F,P])=      0.009852577728
 orbitals (Q,E):
 ---------------
 A :167...177        ( 2.00    -0.3096)  ( 2.00    -0.3049)  ( 2.00    -0.2976)  ( 2.00    -0.2919)
                     ( 2.00    -0.2853)  ( 2.00    -0.2791)  ( 2.00    -0.2568)  ( 2.00    -0.2473)
                     ( 2.00    -0.2334)  ( 2.00    -0.2243)  ( 0.00    -0.0672)

 CYCLE    6
  SDIIS (wt  0.999): -0.1943  0.2357 -0.1181  0.3983  0.6784
 A-DIIS (wt  0.001):  0.0000  0.0000  0.0000  0.0016  0.9984
  DIIS coefficients: -0.1941  0.2355 -0.1180  0.3980  0.6786
 SCF Error: norm([F,P])=      0.013431506169, max([F,P])=      0.001064380821
 orbitals (Q,E):
 ---------------
 A :167...177        ( 2.00    -0.3085)  ( 2.00    -0.3034)  ( 2.00    -0.2968)  ( 2.00    -0.2911)
                     ( 2.00    -0.2845)  ( 2.00    -0.2784)  ( 2.00    -0.2553)  ( 2.00    -0.2468)
                     ( 2.00    -0.2327)  ( 2.00    -0.2236)  ( 0.00    -0.0658)

 CYCLE    7
  SDIIS (wt  1.000):  0.0131 -0.0481 -0.0026  0.0322  0.4240  0.5813
  DIIS coefficients:  0.0131 -0.0481 -0.0026  0.0322  0.4240  0.5813
 SCF Error: norm([F,P])=      0.006580340913, max([F,P])=      0.000662515843
 orbitals (Q,E):
 ---------------
 A :167...177        ( 2.00    -0.3087)  ( 2.00    -0.3037)  ( 2.00    -0.2969)  ( 2.00    -0.2911)
                     ( 2.00    -0.2846)  ( 2.00    -0.2784)  ( 2.00    -0.2556)  ( 2.00    -0.2467)
                     ( 2.00    -0.2327)  ( 2.00    -0.2236)  ( 0.00    -0.0662)

 CYCLE    8
  SDIIS (wt  1.000):  0.0180 -0.0392  0.0050 -0.0114  0.1658  0.3056  0.5560
  DIIS coefficients:  0.0180 -0.0392  0.0050 -0.0114  0.1658  0.3056  0.5560
 SCF Error: norm([F,P])=      0.001673529783, max([F,P])=      0.000180290281
 orbitals (Q,E):
 ---------------
 A :167...177        ( 2.00    -0.3087)  ( 2.00    -0.3037)  ( 2.00    -0.2969)  ( 2.00    -0.2911)
                     ( 2.00    -0.2846)  ( 2.00    -0.2784)  ( 2.00    -0.2556)  ( 2.00    -0.2467)
                     ( 2.00    -0.2327)  ( 2.00    -0.2236)  ( 0.00    -0.0661)

 CYCLE    9
  SDIIS (wt  1.000):  0.0045 -0.0088  0.0007 -0.0109  0.0043  0.0621  0.3462  0.6019
  DIIS coefficients:  0.0045 -0.0088  0.0007 -0.0109  0.0043  0.0621  0.3462  0.6019
 SCF Error: norm([F,P])=      0.000849360966, max([F,P])=      0.000089059313
 orbitals (Q,E):
 ---------------
 A :167...177        ( 2.00    -0.3087)  ( 2.00    -0.3037)  ( 2.00    -0.2969)  ( 2.00    -0.2911)
                     ( 2.00    -0.2846)  ( 2.00    -0.2784)  ( 2.00    -0.2556)  ( 2.00    -0.2467)
                     ( 2.00    -0.2327)  ( 2.00    -0.2236)  ( 0.00    -0.0662)

 CYCLE   10
  SDIIS (wt  1.000): -0.0015  0.0031 -0.0015 -0.0042 -0.0326 -0.0243  0.0922  0.3642  0.6045
  DIIS coefficients: -0.0015  0.0031 -0.0015 -0.0042 -0.0326 -0.0243  0.0922  0.3642  0.6045
 SCF Error: norm([F,P])=      0.000377252778, max([F,P])=      0.000047489330
 orbitals (Q,E):
 ---------------
 A :167...177        ( 2.00    -0.3087)  ( 2.00    -0.3036)  ( 2.00    -0.2969)  ( 2.00    -0.2911)
                     ( 2.00    -0.2846)  ( 2.00    -0.2784)  ( 2.00    -0.2556)  ( 2.00    -0.2467)
                     ( 2.00    -0.2327)  ( 2.00    -0.2236)  ( 0.00    -0.0661)

 CYCLE   11
  SDIIS (wt  1.000): -0.0023  0.0043 -0.0014  0.0001 -0.0213 -0.0266 -0.0114  0.1168  0.4045  0.5373
  DIIS coefficients: -0.0023  0.0043 -0.0014  0.0001 -0.0213 -0.0266 -0.0114  0.1168  0.4045  0.5373
 SCF Error: norm([F,P])=      0.000187874428, max([F,P])=      0.000018106826
 orbitals (Q,E):
 ---------------
 A :167...177        ( 2.00    -0.3087)  ( 2.00    -0.3036)  ( 2.00    -0.2969)  ( 2.00    -0.2911)
                     ( 2.00    -0.2846)  ( 2.00    -0.2784)  ( 2.00    -0.2556)  ( 2.00    -0.2467)
                     ( 2.00    -0.2327)  ( 2.00    -0.2236)  ( 0.00    -0.0661)

 CYCLE   12
  SDIIS (wt  1.000):  0.0005  0.0001 -0.0005 -0.0051 -0.0078 -0.0188  0.0026  0.1186  0.2681  0.6425
  DIIS coefficients:  0.0005  0.0001 -0.0005 -0.0051 -0.0078 -0.0188  0.0026  0.1186  0.2681  0.6425
 SCF Error: norm([F,P])=      0.000059537491, max([F,P])=      0.000005171741
 orbitals (Q,E):
 ---------------
 A :167...177        ( 2.00    -0.3087)  ( 2.00    -0.3036)  ( 2.00    -0.2969)  ( 2.00    -0.2911)
                     ( 2.00    -0.2846)  ( 2.00    -0.2784)  ( 2.00    -0.2556)  ( 2.00    -0.2467)
                     ( 2.00    -0.2327)  ( 2.00    -0.2236)  ( 0.00    -0.0661)

 CYCLE   13
  SDIIS (wt  1.000):  0.0000  0.0004  0.0011 -0.0005 -0.0121 -0.0209  0.0107  0.0848  0.4314  0.5049
  DIIS coefficients:  0.0000  0.0004  0.0011 -0.0005 -0.0121 -0.0209  0.0107  0.0848  0.4314  0.5049
 SCF Error: norm([F,P])=      0.000039809383, max([F,P])=      0.000004679095
 orbitals (Q,E):
 ---------------
 A :167...177        ( 2.00    -0.3087)  ( 2.00    -0.3036)  ( 2.00    -0.2969)  ( 2.00    -0.2911)
                     ( 2.00    -0.2846)  ( 2.00    -0.2784)  ( 2.00    -0.2556)  ( 2.00    -0.2467)
                     ( 2.00    -0.2327)  ( 2.00    -0.2236)  ( 0.00    -0.0661)

 CYCLE   14
  SDIIS (wt  1.000):  0.0000  0.0001 -0.0002 -0.0026 -0.0063 -0.0019  0.0079  0.1120  0.2434  0.6476
  DIIS coefficients:  0.0000  0.0001 -0.0002 -0.0026 -0.0063 -0.0019  0.0079  0.1120  0.2434  0.6476
 SCF Error: norm([F,P])=      0.000012094159, max([F,P])=      0.000001168384
 orbitals (Q,E):
 ---------------
 A :167...177        ( 2.00    -0.3087)  ( 2.00    -0.3036)  ( 2.00    -0.2969)  ( 2.00    -0.2911)
                     ( 2.00    -0.2846)  ( 2.00    -0.2784)  ( 2.00    -0.2556)  ( 2.00    -0.2467)
                     ( 2.00    -0.2327)  ( 2.00    -0.2236)  ( 0.00    -0.0661)

 CYCLE   15
  SDIIS (wt  1.000):  0.0001  0.0001 -0.0006 -0.0032 -0.0052 -0.0086  0.0224  0.0863  0.3470  0.5619
  DIIS coefficients:  0.0001  0.0001 -0.0006 -0.0032 -0.0052 -0.0086  0.0224  0.0863  0.3470  0.5619
 SCF Error: norm([F,P])=      0.000004792856, max([F,P])=      0.000000527095
 orbitals (Q,E):
 ---------------
 A :167...177        ( 2.00    -0.3087)  ( 2.00    -0.3036)  ( 2.00    -0.2969)  ( 2.00    -0.2911)
                     ( 2.00    -0.2846)  ( 2.00    -0.2784)  ( 2.00    -0.2556)  ( 2.00    -0.2467)
                     ( 2.00    -0.2327)  ( 2.00    -0.2236)  ( 0.00    -0.0661)

 SCF CONVERGED

 CYCLE   16
1
 ***************************************************************************************************



                                                *******************
                                                *  R E S U L T S  *
[...]
     450       27.5637         0.000       
     449       27.4210         0.000       
     448       27.3403         0.000       
     447       27.1682         0.000       
     446       26.9934         0.000       
     445       26.9734         0.000       
     444       26.8178         0.000       
     443       26.6418         0.000       
     442       26.5663         0.000       
     441       26.4611         0.000       
     440       26.2046         0.000       
     439       26.0556         0.000       
     438       25.8914         0.000       
     437       25.7671         0.000       
     436       25.5466         0.000       
     435       25.3581         0.000       
     434       25.2559         0.000       
     433       25.1251         0.000       
     432       25.0759         0.000       
     431       24.8604         0.000       
     430       24.7772         0.000       
     429       24.6342         0.000       
     428       24.5227         0.000       
     427       24.3423         0.000       
     426       24.2631         0.000       
     425       24.0805         0.000       
     424       23.9146         0.000       
     423       23.7859         0.000       
     422       23.6703         0.000       
     421       23.3594         0.000       
     420       23.0475         0.000       
     419       22.9956         0.000       
     418       22.9330         0.000       
     417       22.8329         0.000       
     416       22.7723         0.000       
     415       22.6646         0.000       
     414       22.5719         0.000       
     413       22.5224         0.000       
     412       22.2510         0.000       
     411       22.1939         0.000       
     410       22.1388         0.000       
     409       22.0603         0.000       
     408       21.8288         0.000       
     407       21.6382         0.000       
     406       21.5555         0.000       
     405       21.4483         0.000       
     404       21.3013         0.000       
     403       21.1776         0.000       
     402       20.9065         0.000       
     401       20.7827         0.000       
     400       20.7102         0.000       
     399       20.4155         0.000       
     398       20.3983         0.000       
     397       20.2388         0.000       
     396       20.1601         0.000       
     395       19.9801         0.000       
     394       19.8134         0.000       
     393       19.6863         0.000       
     392       19.6475         0.000       
     391       19.5665         0.000       
     390       19.5419         0.000       
     389       19.3409         0.000       
     388       19.2312         0.000       
     387       19.2115         0.000       
     386       18.9748         0.000       
     385       18.8386         0.000       
     384       18.6218         0.000       
     383       18.5848         0.000       
     382       18.5425         0.000       
     381       18.3367         0.000       
     380       18.2800         0.000       
     379       18.1187         0.000       
     378       18.0400         0.000       
     377       17.9581         0.000       
     376       17.8223         0.000       
     375       17.7908         0.000       
     374       17.6322         0.000       
     373       17.4572         0.000       
     372       17.3041         0.000       
     371       17.2366         0.000       
     370       17.0965         0.000       
     369       16.9482         0.000       
     368       16.8473         0.000       
     367       16.7853         0.000       
     366       16.6557         0.000       
     365       16.5765         0.000       
     364       16.5337         0.000       
     363       16.3513         0.000       
     362       16.2851         0.000       
     361       16.2238         0.000       
     360       16.0910         0.000       
     359       15.9813         0.000       
     358       15.8059         0.000       
     357       15.7619         0.000       
     356       15.7254         0.000       
     355       15.5993         0.000       
     354       15.4897         0.000       
     353       15.4070         0.000       
     352       15.2791         0.000       
     351       15.1717         0.000       
     350       15.1006         0.000       
     349       14.9547         0.000       
     348       14.9241         0.000       
     347       14.7746         0.000       
     346       14.5353         0.000       
     345       14.4894         0.000       
     344       14.4044         0.000       
     343       14.3646         0.000       
     342       14.2497         0.000       
     341       14.1760         0.000       
     340       14.0634         0.000       
     339       13.8243         0.000       
     338       13.7710         0.000       
     337       13.6606         0.000       
     336       13.5973         0.000       
     335       13.4922         0.000       
     334       13.4776         0.000       
     333       13.3368         0.000       
     332       13.2377         0.000       
     331       13.0908         0.000       
     330       12.9708         0.000       
     329       12.9386         0.000       
     328       12.8319         0.000       
     327       12.7362         0.000       
     326       12.7145         0.000       
     325       12.5360         0.000       
     324       12.5079         0.000       
     323       12.3604         0.000       
     322       12.2741         0.000       
     321       12.2087         0.000       
     320       12.1162         0.000       
     319       12.0224         0.000       
     318       11.9518         0.000       
     317       11.9259         0.000       
     316       11.8175         0.000       
     315       11.6283         0.000       
     314       11.5790         0.000       
     313       11.5340         0.000       
     312       11.4917         0.000       
     311       11.4054         0.000       
     310       11.3854         0.000       
     309       11.2982         0.000       
     308       11.1983         0.000       
     307       11.1339         0.000       
     306       11.0880         0.000       
     305       10.8771         0.000       
     304       10.7993         0.000       
     303       10.7543         0.000       
     302       10.6726         0.000       
     301       10.6467         0.000       
     300       10.4936         0.000       
     299       10.4440         0.000       
     298       10.4030         0.000       
     297       10.3363         0.000       
     296       10.2237         0.000       
     295       10.1017         0.000       
     294       10.0727         0.000       
     293        9.9410         0.000       
     292        9.8286         0.000       
     291        9.7624         0.000       
     290        9.6885         0.000       
     289        9.6007         0.000       
     288        9.4775         0.000       
     287        9.4555         0.000       
     286        9.2923         0.000       
     285        9.2604         0.000       
     284        9.0596         0.000       
     283        9.0219         0.000       
     282        8.8148         0.000       
     281        8.7650         0.000       
     280        8.6090         0.000       
     279        8.5453         0.000       
     278        8.5070         0.000       
     277        8.4454         0.000       
     276        8.3746         0.000       
     275        8.2425         0.000       
     274        8.2001         0.000       
     273        8.1367         0.000       
     272        7.9918         0.000       
     271        7.8995         0.000       
     270        7.7128         0.000       
     269        7.6212         0.000       
     268        7.5305         0.000       
     267        7.4464         0.000       
     266        7.4223         0.000       
     265        7.2463         0.000       
     264        7.2119         0.000       
     263        7.1216         0.000       
     262        6.9231         0.000       
     261        6.8327         0.000       
     260        6.7979         0.000       
     259        6.7139         0.000       
     258        6.6018         0.000       
     257        6.4941         0.000       
     256        6.4326         0.000       
     255        6.3835         0.000       
     254        6.2526         0.000       
     253        6.1769         0.000       
     252        6.0655         0.000       
     251        6.0206         0.000       
     250        5.9226         0.000       
     249        5.7827         0.000       
     248        5.7350         0.000       
     247        5.6741         0.000       
     246        5.5942         0.000       
     245        5.4862         0.000       
     244        5.3936         0.000       
     243        5.3181         0.000       
     242        5.1198         0.000       
     241        5.0563         0.000       
     240        4.9431         0.000       
     239        4.8393         0.000       
     238        4.7886         0.000       
     237        4.7476         0.000       
     236        4.6331         0.000       
     235        4.6083         0.000       
     234        4.5032         0.000       
     233        4.4389         0.000       
     232        4.3684         0.000       
     231        4.3272         0.000       
     230        4.2489         0.000       
     229        4.1105         0.000       
     228        4.0391         0.000       
     227        3.9623         0.000       
     226        3.9170         0.000       
     225        3.8643         0.000       
     224        3.7640         0.000       
     223        3.6617         0.000       
     222        3.6341         0.000       
     221        3.5235         0.000       
     220        3.4905         0.000       
     219        3.4371         0.000       
     218        3.2931         0.000       
     217        3.1690         0.000       
     216        3.0788         0.000       
     215        3.0032         0.000       
     214        2.8598         0.000       
     213        2.8463         0.000       
     212        2.7672         0.000       
     211        2.6926         0.000       
     210        2.6319         0.000       
     209        2.5077         0.000       
     208        2.4648         0.000       
     207        2.3779         0.000       
     206        2.2954         0.000       
     205        2.2502         0.000       
     204        2.1749         0.000       
     203        2.0874         0.000       
     202        1.9312         0.000       
     201        1.8186         0.000       
     200        1.7910         0.000       
     199        1.7553         0.000       
     198        1.6058         0.000       
     197        1.4874         0.000       
     196        1.4346         0.000       
     195        1.2998         0.000       
     194        1.2820         0.000       
     193        1.2105         0.000       
     192        1.0848         0.000       
     191        1.0405         0.000       
     190        0.7387         0.000       
     189        0.6786         0.000       
     188        0.5984         0.000       
     187        0.5775         0.000       
     186        0.4761         0.000       
     185        0.3911         0.000       
     184        0.3171         0.000       
     183        0.2885         0.000       
     182        0.0912         0.000       
     181       -0.0306         0.000       
     180       -0.1537         0.000       
     179       -0.3496         0.000       
     178       -1.1275         0.000       
     177       -1.7999         0.000 < LUMO
     176       -6.0837         2.000 < HOMO
     175       -6.3312         2.000       
     174       -6.7135         2.000       
     173       -6.9552         2.000       
     172       -7.5765         2.000       
     171       -7.7441         2.000       
     170       -7.9219         2.000       
     169       -8.0781         2.000       
     168       -8.2625         2.000       
     167       -8.4003         2.000       
     166       -8.5333         2.000       
     165       -8.6790         2.000       
     164       -8.7649         2.000       
     163       -9.0050         2.000       
     162       -9.1198         2.000       
     161       -9.3027         2.000       
     160       -9.3765         2.000       
     159       -9.4394         2.000       
     158       -9.5735         2.000       
     157       -9.5935         2.000       
     156       -9.6124         2.000       
     155       -9.7583         2.000       
     154      -10.0920         2.000       
     153      -10.1829         2.000       
     152      -10.2770         2.000       
     151      -10.4042         2.000       
     150      -10.4513         2.000       
     149      -10.5451         2.000       
     148      -10.6537         2.000       
     147      -10.7415         2.000       
     146      -10.8497         2.000       
     145      -10.9529         2.000       
     144      -11.0831         2.000       
     143      -11.1463         2.000       
     142      -11.2119         2.000       
     141      -11.2722         2.000       
     140      -11.3255         2.000       
     139      -11.3988         2.000       
     138      -11.5903         2.000       
     137      -11.6440         2.000       
     136      -11.6891         2.000       
     135      -11.7745         2.000       
     134      -11.8216         2.000       
     133      -12.0494         2.000       
     132      -12.0935         2.000       
     131      -12.2486         2.000       
     130      -12.2867         2.000       
     129      -12.4482         2.000       
     128      -12.6964         2.000       
     127      -12.7690         2.000       
     126      -12.7761         2.000       
     125      -12.8326         2.000       
     124      -12.9434         2.000       
     123      -12.9659         2.000       
     122      -13.1735         2.000       
     121      -13.2295         2.000       
     120      -13.2529         2.000       
     119      -13.3405         2.000       
     118      -13.4002         2.000       
     117      -13.4710         2.000       
     116      -13.5563         2.000       
     115      -13.6700         2.000       
     114      -13.6955         2.000       
     113      -13.7792         2.000       
     112      -13.9015         2.000       
     111      -13.9903         2.000       
     110      -14.2360         2.000       
     109      -14.4558         2.000       
     108      -14.8181         2.000       
     107      -14.9860         2.000       
     106      -15.1538         2.000       
     105      -15.3318         2.000       
     104      -15.6149         2.000       
     103      -16.0110         2.000       
     102      -16.1541         2.000       
     101      -16.2160         2.000       
     100      -16.2994         2.000       
      99      -16.7968         2.000       
      98      -16.9957         2.000       
      97      -17.4023         2.000       
      96      -18.5358         2.000       
      95      -18.5571         2.000       
      94      -18.9513         2.000       
      93      -19.5982         2.000       
      92      -19.6757         2.000       
      91      -19.8774         2.000       
      90      -19.9934         2.000       
      89      -20.0307         2.000       
      88      -20.0589         2.000       
      87      -20.1064         2.000       
      86      -20.3372         2.000       
      85      -20.8219         2.000       
      84      -21.3674         2.000       
      83      -21.5229         2.000       
      82      -22.3302         2.000       
      81      -23.4563         2.000       
      80      -23.5264         2.000       
      79      -24.1575         2.000       
      78      -24.2146         2.000       
      77      -24.3842         2.000       
      76      -24.5251         2.000       
      75      -26.0383         2.000       
      74      -27.7523         2.000       
      73      -30.3826         2.000       
      72      -30.7585         2.000       
      71      -34.5784         2.000       
      70      -34.7305         2.000       
      69      -35.0165         2.000       
      68      -35.2644         2.000       
      67      -57.9772         2.000       
      66      -58.7773         2.000       
      65      -58.9520         2.000       
      64      -93.9775         2.000       
      63     -129.9367         2.000       
      62     -130.0052         2.000       
      61     -130.0142         2.000       
      60     -165.5144         2.000       
      59     -165.5212         2.000       
      58     -165.5497         2.000       
      57     -181.7967         2.000       
      56     -197.4163         2.000       
      55     -197.4324         2.000       
      54     -197.7004         2.000       
      53     -223.0728         2.000       
      52     -261.0610         2.000       
      51     -278.4797         2.000       
      50     -278.5886         2.000       
      49     -278.6841         2.000       
      48     -278.7014         2.000       
      47     -278.7482         2.000       
      46     -278.7715         2.000       
      45     -278.7886         2.000       
      44     -278.8084         2.000       
      43     -278.8472         2.000       
      42     -278.8870         2.000       
      41     -278.8968         2.000       
      40     -278.9987         2.000       
      39     -279.1735         2.000       
      38     -279.2687         2.000       
      37     -279.3015         2.000       
      36     -279.9562         2.000       
      35     -279.9870         2.000       
      34     -280.0010         2.000       
      33     -280.0403         2.000       
      32     -280.0717         2.000       
      31     -280.2647         2.000       
      30     -280.5380         2.000       
      29     -280.9815         2.000       
      28     -281.1391         2.000       
      27     -281.1756         2.000       
      26     -281.2245         2.000       
      25     -338.2347         2.000       
      24     -338.2798         2.000       
      23     -338.3440         2.000       
      22     -338.5270         2.000       
      21     -338.5319         2.000       
      20     -391.9301         2.000       
      19     -522.4955         2.000       
      18     -522.5256         2.000       
      17     -524.1486         2.000       
      16     -532.0359         2.000       
      15     -532.3730         2.000       
      14     -532.4629         2.000       
      13     -654.1300         2.000       
      12     -675.0404         2.000       
      11     -675.3069         2.000       
      10     -675.3811         2.000       
       9     -675.4002         2.000       
       8    -2107.8806         2.000       
       7    -2434.8678         2.000       
       6    -2777.2864         2.000       
       5    -3190.2324         2.000       
       4    -3190.3768         2.000       
       3    -3190.4052         2.000       
       2    -3561.2973         2.000       
       1   -24224.4571         2.000       

AMS application finished. Exiting.
NORMAL TERMINATION
     Total cpu time:    2754.29
  Total system time:      29.89
 Total elapsed time:    2795.23
NORMAL TERMINATION
