

 Parallel Execution: Process Information
 ==============================================================================
 Rank   Node Name                              NodeID   MyNodeRank  NodeMaster
    0   eu-g5-003-1                               0          0          0
    1   eu-g5-003-1                               1          0          1
    2   eu-g5-003-1                               0          1         -1
    3   eu-g5-003-1                               1          1         -1
    4   eu-g5-003-1                               0          2         -1
    5   eu-g5-003-1                               1          2         -1
    6   eu-g5-003-1                               0          3         -1
    7   eu-g5-003-1                               1          3         -1
    8   eu-g5-003-1                               0          4         -1
    9   eu-g5-003-1                               1          4         -1
   10   eu-g5-003-1                               0          5         -1
   11   eu-g5-003-1                               1          5         -1
   12   eu-g5-003-1                               0          6         -1
   13   eu-g5-003-1                               1          6         -1
   14   eu-g5-003-1                               0          7         -1
   15   eu-g5-003-1                               1          7         -1
 ==============================================================================


May use up to 30549MB of RAM as shared memory on node 0
May use up to 30759MB of RAM as shared memory on node 1

 *******************************************************************************
 *                                                                             *
 *  --------------------------------                                           *
 *   Amsterdam Modeling Suite (AMS)              2023.101                      *
 *  --------------------------------                                           *
 *                                               r111868 2023-03-31            *
 *                                                                             *
 *                                                                             *
 *                              =================                              *
 *                              |               |                              *
 *                              |     A M S     |                              *
 *                              |               |                              *
 *                              =================                              *
 *                                                                             *
 *                                                                             *
 *   Online information and documentation:  https://www.scm.com/support/       *
 *   E-mail:  support@scm.com   info@scm.com                                   *
 *                                                                             *
 *   Scientific publications using AMS results must be properly referenced     *
 *   See the User Manuals (or the web site) for recommended citations          *
 *   The terms and conditions of the End User License Agreement apply to       *
 *   the use of AMS, https://www.scm.com/license-terms/                        *
 *                                                                             *
 ***********************  x86_64_linux_intel / openmpi  ************************
 
 Licensed to: D-CHAB / ETH site license / Zurich / Switzerland 2023-06-23 15:55:12
 SCM User ID: u7035
  
 AMS 2023.101  RunTime: May25-2024 09:19:21  ShM Nodes: 2  Procs: 16

 AMS jobname: gs_ptbu2cy
 AMS jobid  : 123216912

 Start   directory: /cluster/scratch/sroediger/michael/eda/
 Results directory: /cluster/scratch/sroediger/michael/eda/gs_ptbu2cy.results/
 Scratch directory: /scratch/amstmp_gs_ptbu2cy_kid0.123216912/


 Communication costs MPI_COMM_WORLD:      7.506 usec per message,   0.0179 usec per 8-byte item
 Communication costs for intra-node:      3.867 usec per message,   0.0176 usec per 8-byte item

 RNG seed: 1700012408 -1181249084 1087545082 -452557943 -741526902 1732713630 -1814725857 1117299035



                     *************************************************************************
                     *  ADF 2023.101  RunTime: May25-2024 09:19:21  ShM Nodes: 2  Procs: 16  *
                     *************************************************************************
  

       ****************************
       * SINGLE POINT CALCULATION *
       ****************************
 
--------
Geometry
--------
Formula: C28H37ClF4NO3PPdS
Atoms
  Index Symbol   x (angstrom)   y (angstrom)   z (angstrom)
      1     Pd    -0.36985969    -0.37128242     0.49460221       region=pdsubstrate adf.f=pdsubstrate
      2      C     0.28366573     1.36352786    -0.15740431       region=pdsubstrate adf.f=pdsubstrate
      3      C    -0.59107553     2.45535042    -0.19421163       region=pdsubstrate adf.f=pdsubstrate
      4      H    -1.63806966     2.32188675     0.08100156       region=pdsubstrate adf.f=pdsubstrate
      5      C    -0.15996720     3.72618964    -0.54643563       region=pdsubstrate adf.f=pdsubstrate
      6      H    -0.84714806     4.57390266    -0.57499725       region=pdsubstrate adf.f=pdsubstrate
      7      C     1.18732147     3.93661534    -0.86018535       region=pdsubstrate adf.f=pdsubstrate
      8      C     2.07757951     2.86702704    -0.79020510       region=pdsubstrate adf.f=pdsubstrate
      9      H     3.13370601     3.02535013    -0.99513007       region=pdsubstrate adf.f=pdsubstrate
     10      C     1.64679116     1.57252542    -0.43528653       region=pdsubstrate adf.f=pdsubstrate
     11      C     2.66045482     0.50266290    -0.29720079       region=pdsubstrate adf.f=pdsubstrate
     12      C     3.77476830     0.41760991    -1.13733885       region=pdsubstrate adf.f=pdsubstrate
     13      C     4.76233087    -0.54606483    -0.95790003       region=pdsubstrate adf.f=pdsubstrate
     14      C     4.63621628    -1.47349581     0.07108867       region=pdsubstrate adf.f=pdsubstrate
     15      C     3.51488901    -1.44223900     0.89379347       region=pdsubstrate adf.f=pdsubstrate
     16      C     2.53174435    -0.45745563     0.73699732       region=pdsubstrate adf.f=pdsubstrate
     17      N     1.37125492    -0.51485495     1.49970627       region=pdsubstrate adf.f=pdsubstrate
     18      S     1.37523056    -0.31829227     3.11137455       region=pdsubstrate adf.f=pdsubstrate
     19      O     0.29726045    -1.13006475     3.66517369       region=pdsubstrate adf.f=pdsubstrate
     20      O     2.73322543    -0.38351189     3.64265067       region=pdsubstrate adf.f=pdsubstrate
     21      C     0.91544808     1.41686918     3.40794192       region=pdsubstrate adf.f=pdsubstrate
     22     Cl    -0.80130951     1.76340719     3.19466787       region=pdsubstrate adf.f=pdsubstrate
     23      H     1.50864064     2.04166741     2.72722975       region=pdsubstrate adf.f=pdsubstrate
     24      H     1.19036782     1.60661971     4.45363831       region=pdsubstrate adf.f=pdsubstrate
     25      F     3.36876625    -2.40253262     1.78917418       region=pdsubstrate adf.f=pdsubstrate
     26      F     5.55352504    -2.41299343     0.22547848       region=pdsubstrate adf.f=pdsubstrate
     27      F     5.80706992    -0.59307468    -1.77122474       region=pdsubstrate adf.f=pdsubstrate
     28      F     3.93572894     1.25652710    -2.16140440       region=pdsubstrate adf.f=pdsubstrate
     29      O     1.53939695     5.19425792    -1.19926099       region=pdsubstrate adf.f=pdsubstrate
     30      C     2.87799877     5.45447763    -1.51677934       region=pdsubstrate adf.f=pdsubstrate
     31      H     3.54940087     5.26113792    -0.66130528       region=pdsubstrate adf.f=pdsubstrate
     32      H     2.93821958     6.51816509    -1.77980245       region=pdsubstrate adf.f=pdsubstrate
     33      H     3.22124390     4.85256295    -2.37678399       region=pdsubstrate adf.f=pdsubstrate
     34      P    -2.20417323    -0.68088822    -0.82435274       region=ligand adf.f=ligand
     35      C    -3.64829344     0.39512383    -0.36819477       region=ligand adf.f=ligand
     36      C    -1.95903931    -0.52780619    -2.69043361       region=ligand adf.f=ligand
     37      C    -2.48342983    -2.47061559    -0.25859420       region=ligand adf.f=ligand
     38      C    -4.99900066     0.22214958    -1.06863053       region=ligand adf.f=ligand
     39      C    -3.82991694     0.48107887     1.15145648       region=ligand adf.f=ligand
     40      H    -3.25378363     1.37796828    -0.68608273       region=ligand adf.f=ligand
     41      C    -2.93005349    -1.37904370    -3.51205736       region=ligand adf.f=ligand
     42      C    -2.13180748     0.95191880    -3.05619568       region=ligand adf.f=ligand
     43      C    -0.51216406    -0.91598892    -3.01963480       region=ligand adf.f=ligand
     44      C    -1.52517658    -3.41429898    -0.99092166       region=ligand adf.f=ligand
     45      C    -2.06092498    -2.47238247     1.22285291       region=ligand adf.f=ligand
     46      C    -3.91819733    -2.97007274    -0.39524815       region=ligand adf.f=ligand
     47      C    -5.94469033     1.36050325    -0.68781343       region=ligand adf.f=ligand
     48      H    -4.87816415     0.20037035    -2.16058948       region=ligand adf.f=ligand
     49      H    -5.45228863    -0.74009175    -0.78447282       region=ligand adf.f=ligand
     50      C    -4.76997775     1.62253134     1.52199832       region=ligand adf.f=ligand
     51      H    -2.85260220     0.60710866     1.64527423       region=ligand adf.f=ligand
     52      H    -4.25649276    -0.46475944     1.52733045       region=ligand adf.f=ligand
     53      H    -3.98236634    -1.13820528    -3.31072797       region=ligand adf.f=ligand
     54      H    -2.74860464    -1.19136514    -4.58315427       region=ligand adf.f=ligand
     55      H    -2.79088425    -2.45522748    -3.34483474       region=ligand adf.f=ligand
     56      H    -1.86094448     1.08247766    -4.11620579       region=ligand adf.f=ligand
     57      H    -3.16630179     1.30399557    -2.93826320       region=ligand adf.f=ligand
     58      H    -1.46725723     1.59800475    -2.46382358       region=ligand adf.f=ligand
     59      H     0.20256240    -0.30235319    -2.45207755       region=ligand adf.f=ligand
     60      H    -0.33553629    -0.74602194    -4.09419566       region=ligand adf.f=ligand
     61      H    -0.29525113    -1.97079010    -2.81180148       region=ligand adf.f=ligand
     62      H    -1.77342397    -3.54138253    -2.05234010       region=ligand adf.f=ligand
     63      H    -0.48060579    -3.07664656    -0.91162277       region=ligand adf.f=ligand
     64      H    -1.58543060    -4.40809729    -0.51814522       region=ligand adf.f=ligand
     65      H    -2.17763723    -3.48702556     1.63891247       region=ligand adf.f=ligand
     66      H    -0.97787336    -2.25428165     1.37816225       region=ligand adf.f=ligand
     67      H    -2.63788181    -1.78655289     1.85367324       region=ligand adf.f=ligand
     68      H    -3.97034659    -4.02197583    -0.06809476       region=ligand adf.f=ligand
     69      H    -4.61330464    -2.39779476     0.23433945       region=ligand adf.f=ligand
     70      H    -4.27615516    -2.92613085    -1.43363243       region=ligand adf.f=ligand
     71      C    -6.11599424     1.48213258     0.82160311       region=ligand adf.f=ligand
     72      H    -6.92067987     1.21122289    -1.17693223       region=ligand adf.f=ligand
     73      H    -5.54080784     2.30906597    -1.08615241       region=ligand adf.f=ligand
     74      H    -4.90117772     1.65674466     2.61505759       region=ligand adf.f=ligand
     75      H    -4.30180111     2.58194202     1.23631394       region=ligand adf.f=ligand
     76      H    -6.76968674     2.33478649     1.06506699       region=ligand adf.f=ligand
     77      H    -6.62876379     0.58007559     1.20201851       region=ligand adf.f=ligand
 
Total System Charge             0.00000
Bonding info available!
 
 
----------------
ADF Engine Input
----------------
 
 Basis
 Type TZP
 Core None
 End
 Fragments
 ligand ./gs_ptbu2cy.ligand.results/adf.rkf
 pdsubstrate ./gs_ptbu2cy.pdsubstrate.results/adf.rkf
 End
 XC
 Hybrid PBE0
 DISPERSION Grimme3 BJDAMP
 End
 NumericalQuality VeryGood
 

 Title: *** (NO TITLE) ***

 *** adf ***



 ===========================
 A T T A C H E D   F I L E S
 ===========================
  



 ===============================
 M O D E L   P A R A M E T E R S
 ===============================
  
 DENSITY FUNCTIONAL POTENTIAL (scf)
    Hybrid:                            PBE0                                    == Not Default ==

 SPIN  (restricted / unrestr.)
    Molecule:                          Restricted                               
    Fragments:                         Restricted                               

 OTHER ASPECTS
    Relativistic Corrections:          scalar (ZORA,MAPA)                       

    Nuclear Charge Density Model:      Point Charge Nuclei                      
    Core Treatment:                    Frozen Orbital(s)                        

    Hyperfine or Zeeman Interaction:   ---                                      

 Settings for Grimme D3 dispersion correction

      damping                        BJ
      s6                          1.000
      s8                          1.218
      a1                          0.414
      a2                          4.859

 Other (technical) parameters

      alpha                      14.000
      version                         4
 


 Fragment File(s)
 ----------------
 pdsubstrate:
         file : ./gs_ptbu2cy.pdsubstrate.results/adf.rkf
         jobid: 2070207249
         title: *** adf ***
 ligand:
         file : ./gs_ptbu2cy.ligand.results/adf.rkf
         jobid: 1486756611
         title: *** adf ***



 ===============
 G E O M E T R Y  ***  3D  Molecule  ***
 ===============
  

 ATOMS
 =====                            X Y Z                    CHARGE
                                (Angstrom)             Nucl     +Core       At.Mass
                       --------------------------    ----------------       -------
    1  Pd             -0.3699   -0.3713    0.4946     46.00     46.00      105.9035
    2  C               0.2837    1.3635   -0.1574      6.00      6.00       12.0000
    3  C              -0.5911    2.4554   -0.1942      6.00      6.00       12.0000
    4  H              -1.6381    2.3219    0.0810      1.00      1.00        1.0078
    5  C              -0.1600    3.7262   -0.5464      6.00      6.00       12.0000
    6  H              -0.8471    4.5739   -0.5750      1.00      1.00        1.0078
    7  C               1.1873    3.9366   -0.8602      6.00      6.00       12.0000
    8  C               2.0776    2.8670   -0.7902      6.00      6.00       12.0000
    9  H               3.1337    3.0254   -0.9951      1.00      1.00        1.0078
   10  C               1.6468    1.5725   -0.4353      6.00      6.00       12.0000
   11  C               2.6605    0.5027   -0.2972      6.00      6.00       12.0000
   12  C               3.7748    0.4176   -1.1373      6.00      6.00       12.0000
   13  C               4.7623   -0.5461   -0.9579      6.00      6.00       12.0000
   14  C               4.6362   -1.4735    0.0711      6.00      6.00       12.0000
   15  C               3.5149   -1.4422    0.8938      6.00      6.00       12.0000
   16  C               2.5317   -0.4575    0.7370      6.00      6.00       12.0000
   17  N               1.3713   -0.5149    1.4997      7.00      7.00       14.0031
   18  S               1.3752   -0.3183    3.1114     16.00     16.00       31.9721
   19  O               0.2973   -1.1301    3.6652      8.00      8.00       15.9949
   20  O               2.7332   -0.3835    3.6427      8.00      8.00       15.9949
   21  C               0.9154    1.4169    3.4079      6.00      6.00       12.0000
   22  Cl             -0.8013    1.7634    3.1947     17.00     17.00       34.9689
   23  H               1.5086    2.0417    2.7272      1.00      1.00        1.0078
   24  H               1.1904    1.6066    4.4536      1.00      1.00        1.0078
   25  F               3.3688   -2.4025    1.7892      9.00      9.00       18.9984
   26  F               5.5535   -2.4130    0.2255      9.00      9.00       18.9984
   27  F               5.8071   -0.5931   -1.7712      9.00      9.00       18.9984
   28  F               3.9357    1.2565   -2.1614      9.00      9.00       18.9984
   29  O               1.5394    5.1943   -1.1993      8.00      8.00       15.9949
   30  C               2.8780    5.4545   -1.5168      6.00      6.00       12.0000
   31  H               3.5494    5.2611   -0.6613      1.00      1.00        1.0078
   32  H               2.9382    6.5182   -1.7798      1.00      1.00        1.0078
   33  H               3.2212    4.8526   -2.3768      1.00      1.00        1.0078
   34  P              -2.2042   -0.6809   -0.8244     15.00     15.00       30.9738
   35  C              -3.6483    0.3951   -0.3682      6.00      6.00       12.0000
   36  C              -1.9590   -0.5278   -2.6904      6.00      6.00       12.0000
   37  C              -2.4834   -2.4706   -0.2586      6.00      6.00       12.0000
   38  C              -4.9990    0.2221   -1.0686      6.00      6.00       12.0000
   39  C              -3.8299    0.4811    1.1515      6.00      6.00       12.0000
   40  H              -3.2538    1.3780   -0.6861      1.00      1.00        1.0078
   41  C              -2.9301   -1.3790   -3.5121      6.00      6.00       12.0000
   42  C              -2.1318    0.9519   -3.0562      6.00      6.00       12.0000
   43  C              -0.5122   -0.9160   -3.0196      6.00      6.00       12.0000
   44  C              -1.5252   -3.4143   -0.9909      6.00      6.00       12.0000
   45  C              -2.0609   -2.4724    1.2229      6.00      6.00       12.0000
   46  C              -3.9182   -2.9701   -0.3952      6.00      6.00       12.0000
   47  C              -5.9447    1.3605   -0.6878      6.00      6.00       12.0000
   48  H              -4.8782    0.2004   -2.1606      1.00      1.00        1.0078
   49  H              -5.4523   -0.7401   -0.7845      1.00      1.00        1.0078
   50  C              -4.7700    1.6225    1.5220      6.00      6.00       12.0000
   51  H              -2.8526    0.6071    1.6453      1.00      1.00        1.0078
   52  H              -4.2565   -0.4648    1.5273      1.00      1.00        1.0078
   53  H              -3.9824   -1.1382   -3.3107      1.00      1.00        1.0078
   54  H              -2.7486   -1.1914   -4.5832      1.00      1.00        1.0078
   55  H              -2.7909   -2.4552   -3.3448      1.00      1.00        1.0078
   56  H              -1.8609    1.0825   -4.1162      1.00      1.00        1.0078
   57  H              -3.1663    1.3040   -2.9383      1.00      1.00        1.0078
   58  H              -1.4673    1.5980   -2.4638      1.00      1.00        1.0078
   59  H               0.2026   -0.3024   -2.4521      1.00      1.00        1.0078
   60  H              -0.3355   -0.7460   -4.0942      1.00      1.00        1.0078
   61  H              -0.2953   -1.9708   -2.8118      1.00      1.00        1.0078
   62  H              -1.7734   -3.5414   -2.0523      1.00      1.00        1.0078
   63  H              -0.4806   -3.0766   -0.9116      1.00      1.00        1.0078
   64  H              -1.5854   -4.4081   -0.5181      1.00      1.00        1.0078
   65  H              -2.1776   -3.4870    1.6389      1.00      1.00        1.0078
   66  H              -0.9779   -2.2543    1.3782      1.00      1.00        1.0078
   67  H              -2.6379   -1.7866    1.8537      1.00      1.00        1.0078
   68  H              -3.9703   -4.0220   -0.0681      1.00      1.00        1.0078
   69  H              -4.6133   -2.3978    0.2343      1.00      1.00        1.0078
   70  H              -4.2762   -2.9261   -1.4336      1.00      1.00        1.0078
   71  C              -6.1160    1.4821    0.8216      6.00      6.00       12.0000
   72  H              -6.9207    1.2112   -1.1769      1.00      1.00        1.0078
   73  H              -5.5408    2.3091   -1.0862      1.00      1.00        1.0078
   74  H              -4.9012    1.6567    2.6151      1.00      1.00        1.0078
   75  H              -4.3018    2.5819    1.2363      1.00      1.00        1.0078
   76  H              -6.7697    2.3348    1.0651      1.00      1.00        1.0078
   77  H              -6.6288    0.5801    1.2020      1.00      1.00        1.0078


 FRAGMENTS
 =========                                     Atoms in this Fragment     Cart. coord.s (Angstrom)
                                               -------------------------------------------------------
    1  pdsubstrate                                       1  Pd          -0.3699   -0.3713    0.4946
                                                         2  C            0.2837    1.3635   -0.1574
                                                         3  C           -0.5911    2.4554   -0.1942
                                                         5  C           -0.1600    3.7262   -0.5464
                                                         7  C            1.1873    3.9366   -0.8602
                                                         8  C            2.0776    2.8670   -0.7902
                                                        10  C            1.6468    1.5725   -0.4353
                                                        11  C            2.6605    0.5027   -0.2972
                                                        12  C            3.7748    0.4176   -1.1373
                                                        13  C            4.7623   -0.5461   -0.9579
                                                        14  C            4.6362   -1.4735    0.0711
                                                        15  C            3.5149   -1.4422    0.8938
                                                        16  C            2.5317   -0.4575    0.7370
                                                        21  C            0.9154    1.4169    3.4079
                                                        30  C            2.8780    5.4545   -1.5168
                                                         4  H           -1.6381    2.3219    0.0810
                                                         6  H           -0.8471    4.5739   -0.5750
                                                         9  H            3.1337    3.0254   -0.9951
                                                        23  H            1.5086    2.0417    2.7272
                                                        24  H            1.1904    1.6066    4.4536
                                                        31  H            3.5494    5.2611   -0.6613
                                                        32  H            2.9382    6.5182   -1.7798
                                                        33  H            3.2212    4.8526   -2.3768
                                                        17  N            1.3713   -0.5149    1.4997
                                                        18  S            1.3752   -0.3183    3.1114
                                                        19  O            0.2973   -1.1301    3.6652
                                                        20  O            2.7332   -0.3835    3.6427
                                                        29  O            1.5394    5.1943   -1.1993
                                                        22  Cl          -0.8013    1.7634    3.1947
                                                        25  F            3.3688   -2.4025    1.7892
                                                        26  F            5.5535   -2.4130    0.2255
                                                        27  F            5.8071   -0.5931   -1.7712
                                                        28  F            3.9357    1.2565   -2.1614
    2  ligand                                           45  C           -2.0609   -2.4724    1.2229
                                                        46  C           -3.9182   -2.9701   -0.3952
                                                        47  C           -5.9447    1.3605   -0.6878
                                                        50  C           -4.7700    1.6225    1.5220
                                                        71  C           -6.1160    1.4821    0.8216
                                                        35  C           -3.6483    0.3951   -0.3682
                                                        36  C           -1.9590   -0.5278   -2.6904
                                                        37  C           -2.4834   -2.4706   -0.2586
                                                        38  C           -4.9990    0.2221   -1.0686
                                                        39  C           -3.8299    0.4811    1.1515
                                                        41  C           -2.9301   -1.3790   -3.5121
                                                        42  C           -2.1318    0.9519   -3.0562
                                                        43  C           -0.5122   -0.9160   -3.0196
                                                        44  C           -1.5252   -3.4143   -0.9909
                                                        48  H           -4.8782    0.2004   -2.1606
                                                        49  H           -5.4523   -0.7401   -0.7845
                                                        51  H           -2.8526    0.6071    1.6453
                                                        52  H           -4.2565   -0.4648    1.5273
                                                        53  H           -3.9824   -1.1382   -3.3107
                                                        54  H           -2.7486   -1.1914   -4.5832
                                                        55  H           -2.7909   -2.4552   -3.3448
                                                        56  H           -1.8609    1.0825   -4.1162
                                                        57  H           -3.1663    1.3040   -2.9383
                                                        58  H           -1.4673    1.5980   -2.4638
                                                        59  H            0.2026   -0.3024   -2.4521
                                                        60  H           -0.3355   -0.7460   -4.0942
                                                        61  H           -0.2953   -1.9708   -2.8118
                                                        62  H           -1.7734   -3.5414   -2.0523
                                                        63  H           -0.4806   -3.0766   -0.9116
                                                        64  H           -1.5854   -4.4081   -0.5181
                                                        65  H           -2.1776   -3.4870    1.6389
                                                        66  H           -0.9779   -2.2543    1.3782
                                                        67  H           -2.6379   -1.7866    1.8537
                                                        68  H           -3.9703   -4.0220   -0.0681
                                                        69  H           -4.6133   -2.3978    0.2343
                                                        70  H           -4.2762   -2.9261   -1.4336
                                                        72  H           -6.9207    1.2112   -1.1769
                                                        73  H           -5.5408    2.3091   -1.0862
                                                        74  H           -4.9012    1.6567    2.6151
                                                        75  H           -4.3018    2.5819    1.2363
                                                        76  H           -6.7697    2.3348    1.0651
                                                        77  H           -6.6288    0.5801    1.2020
                                                        40  H           -3.2538    1.3780   -0.6861
                                                        34  P           -2.2042   -0.6809   -0.8244



 =====================================
 S Y M M E T R Y ,   E L E C T R O N S
 =====================================
  
 Symmetry: NOSYM

 Irreducible Representations, including subspecies
 -------------------------------------------------
 A


 Configuration of Valence Electrons
 ==================================
 ( determined in the SCF procedure )

 Total:   366

 Net Charge: 0 (Nuclei minus Electrons)

 Aufbau principle for MO occupations will be applied through SCF cycle no.     150
 Thereafter, the program will assign electrons to MOs that are spatially
 similar to the occupied MOs in a "reference" cycle ("KeepOrbitals").
 The reference cycle is always the PREVIOUS cycle: it will evolve with
 the SCF procedure.
1
 ***************************************************************************************************



                                      ****************************************
                                      *  B U I L D : (Fragments, Functions)  *
                                      ****************************************
  

 The individual fragments are copies of the corresponding 'Master' fragments defined on the fragment files.
 However, they may have been rotated (and translated) with respect to the Master. The local coordinate axes
 of each fragment (which define for instance the spatial orientation in the current molecule of a fragment
 P:x orbital) are not necessarily those of the molecule.
 The local frame (if different from the molecular one) is printed to enable an interpretation of the expan-
 sion of an MO in Fragment Orbitals.



                                         *********************************
                                         *  Fragment Type : pdsubstrate  *
                                         *********************************
  

 Fragment no.    1   (in the list of all fragments)
 -----------------
 The local coordinate frame is identical to the molecular frame.

 Check Atomic Coordinates:

                  Master (on file)          After Computed Tranformation               As specified on Input
           ----------------------------     ----------------------------     ---------------------------------
     1)    -0.36986  -0.37128   0.49460     -0.36986  -0.37128   0.49460       1  -0.36986  -0.37128   0.49460
     2)     0.28367   1.36353  -0.15740      0.28367   1.36353  -0.15740       2   0.28367   1.36353  -0.15740
     3)    -0.59108   2.45535  -0.19421     -0.59108   2.45535  -0.19421       3  -0.59108   2.45535  -0.19421
     4)    -0.15997   3.72619  -0.54644     -0.15997   3.72619  -0.54644       5  -0.15997   3.72619  -0.54644
     5)     1.18732   3.93662  -0.86019      1.18732   3.93662  -0.86019       7   1.18732   3.93662  -0.86019
     6)     2.07758   2.86703  -0.79021      2.07758   2.86703  -0.79021       8   2.07758   2.86703  -0.79021
     7)     1.64679   1.57253  -0.43529      1.64679   1.57253  -0.43529      10   1.64679   1.57253  -0.43529
     8)     2.66045   0.50266  -0.29720      2.66045   0.50266  -0.29720      11   2.66045   0.50266  -0.29720
     9)     3.77477   0.41761  -1.13734      3.77477   0.41761  -1.13734      12   3.77477   0.41761  -1.13734
    10)     4.76233  -0.54606  -0.95790      4.76233  -0.54606  -0.95790      13   4.76233  -0.54606  -0.95790
    11)     4.63622  -1.47350   0.07109      4.63622  -1.47350   0.07109      14   4.63622  -1.47350   0.07109
    12)     3.51489  -1.44224   0.89379      3.51489  -1.44224   0.89379      15   3.51489  -1.44224   0.89379
    13)     2.53174  -0.45746   0.73700      2.53174  -0.45746   0.73700      16   2.53174  -0.45746   0.73700
    14)     0.91545   1.41687   3.40794      0.91545   1.41687   3.40794      21   0.91545   1.41687   3.40794
    15)     2.87800   5.45448  -1.51678      2.87800   5.45448  -1.51678      30   2.87800   5.45448  -1.51678
    16)    -1.63807   2.32189   0.08100     -1.63807   2.32189   0.08100       4  -1.63807   2.32189   0.08100
    17)    -0.84715   4.57390  -0.57500     -0.84715   4.57390  -0.57500       6  -0.84715   4.57390  -0.57500
    18)     3.13371   3.02535  -0.99513      3.13371   3.02535  -0.99513       9   3.13371   3.02535  -0.99513
    19)     1.50864   2.04167   2.72723      1.50864   2.04167   2.72723      23   1.50864   2.04167   2.72723
    20)     1.19037   1.60662   4.45364      1.19037   1.60662   4.45364      24   1.19037   1.60662   4.45364
    21)     3.54940   5.26114  -0.66131      3.54940   5.26114  -0.66131      31   3.54940   5.26114  -0.66131
    22)     2.93822   6.51817  -1.77980      2.93822   6.51817  -1.77980      32   2.93822   6.51817  -1.77980
    23)     3.22124   4.85256  -2.37678      3.22124   4.85256  -2.37678      33   3.22124   4.85256  -2.37678
    24)     1.37125  -0.51485   1.49971      1.37125  -0.51485   1.49971      17   1.37125  -0.51485   1.49971
    25)     1.37523  -0.31829   3.11137      1.37523  -0.31829   3.11137      18   1.37523  -0.31829   3.11137
    26)     0.29726  -1.13006   3.66517      0.29726  -1.13006   3.66517      19   0.29726  -1.13006   3.66517
    27)     2.73323  -0.38351   3.64265      2.73323  -0.38351   3.64265      20   2.73323  -0.38351   3.64265
    28)     1.53940   5.19426  -1.19926      1.53940   5.19426  -1.19926      29   1.53940   5.19426  -1.19926
    29)    -0.80131   1.76341   3.19467     -0.80131   1.76341   3.19467      22  -0.80131   1.76341   3.19467
    30)     3.36877  -2.40253   1.78917      3.36877  -2.40253   1.78917      25   3.36877  -2.40253   1.78917
    31)     5.55353  -2.41299   0.22548      5.55353  -2.41299   0.22548      26   5.55353  -2.41299   0.22548
    32)     5.80707  -0.59307  -1.77122      5.80707  -0.59307  -1.77122      27   5.80707  -0.59307  -1.77122
    33)     3.93573   1.25653  -2.16140      3.93573   1.25653  -2.16140      28   3.93573   1.25653  -2.16140



                                            ****************************
                                            *  Fragment Type : ligand  *
                                            ****************************
  

 Fragment no.    2   (in the list of all fragments)
 -----------------
 The local coordinate frame is identical to the molecular frame.

 Check Atomic Coordinates:

                  Master (on file)          After Computed Tranformation               As specified on Input
           ----------------------------     ----------------------------     ---------------------------------
     1)    -2.06092  -2.47238   1.22285     -2.06092  -2.47238   1.22285      45  -2.06092  -2.47238   1.22285
     2)    -3.91820  -2.97007  -0.39525     -3.91820  -2.97007  -0.39525      46  -3.91820  -2.97007  -0.39525
     3)    -5.94469   1.36050  -0.68781     -5.94469   1.36050  -0.68781      47  -5.94469   1.36050  -0.68781
     4)    -4.76998   1.62253   1.52200     -4.76998   1.62253   1.52200      50  -4.76998   1.62253   1.52200
     5)    -6.11599   1.48213   0.82160     -6.11599   1.48213   0.82160      71  -6.11599   1.48213   0.82160
     6)    -3.64829   0.39512  -0.36819     -3.64829   0.39512  -0.36819      35  -3.64829   0.39512  -0.36819
     7)    -1.95904  -0.52781  -2.69043     -1.95904  -0.52781  -2.69043      36  -1.95904  -0.52781  -2.69043
     8)    -2.48343  -2.47062  -0.25859     -2.48343  -2.47062  -0.25859      37  -2.48343  -2.47062  -0.25859
     9)    -4.99900   0.22215  -1.06863     -4.99900   0.22215  -1.06863      38  -4.99900   0.22215  -1.06863
    10)    -3.82992   0.48108   1.15146     -3.82992   0.48108   1.15146      39  -3.82992   0.48108   1.15146
    11)    -2.93005  -1.37904  -3.51206     -2.93005  -1.37904  -3.51206      41  -2.93005  -1.37904  -3.51206
    12)    -2.13181   0.95192  -3.05620     -2.13181   0.95192  -3.05620      42  -2.13181   0.95192  -3.05620
    13)    -0.51216  -0.91599  -3.01963     -0.51216  -0.91599  -3.01963      43  -0.51216  -0.91599  -3.01963
    14)    -1.52518  -3.41430  -0.99092     -1.52518  -3.41430  -0.99092      44  -1.52518  -3.41430  -0.99092
    15)    -4.87816   0.20037  -2.16059     -4.87816   0.20037  -2.16059      48  -4.87816   0.20037  -2.16059
    16)    -5.45229  -0.74009  -0.78447     -5.45229  -0.74009  -0.78447      49  -5.45229  -0.74009  -0.78447
    17)    -2.85260   0.60711   1.64527     -2.85260   0.60711   1.64527      51  -2.85260   0.60711   1.64527
    18)    -4.25649  -0.46476   1.52733     -4.25649  -0.46476   1.52733      52  -4.25649  -0.46476   1.52733
    19)    -3.98237  -1.13821  -3.31073     -3.98237  -1.13821  -3.31073      53  -3.98237  -1.13821  -3.31073
    20)    -2.74860  -1.19137  -4.58315     -2.74860  -1.19137  -4.58315      54  -2.74860  -1.19137  -4.58315
    21)    -2.79088  -2.45523  -3.34483     -2.79088  -2.45523  -3.34483      55  -2.79088  -2.45523  -3.34483
    22)    -1.86094   1.08248  -4.11621     -1.86094   1.08248  -4.11621      56  -1.86094   1.08248  -4.11621
    23)    -3.16630   1.30400  -2.93826     -3.16630   1.30400  -2.93826      57  -3.16630   1.30400  -2.93826
    24)    -1.46726   1.59800  -2.46382     -1.46726   1.59800  -2.46382      58  -1.46726   1.59800  -2.46382
    25)     0.20256  -0.30235  -2.45208      0.20256  -0.30235  -2.45208      59   0.20256  -0.30235  -2.45208
    26)    -0.33554  -0.74602  -4.09420     -0.33554  -0.74602  -4.09420      60  -0.33554  -0.74602  -4.09420
    27)    -0.29525  -1.97079  -2.81180     -0.29525  -1.97079  -2.81180      61  -0.29525  -1.97079  -2.81180
    28)    -1.77342  -3.54138  -2.05234     -1.77342  -3.54138  -2.05234      62  -1.77342  -3.54138  -2.05234
    29)    -0.48061  -3.07665  -0.91162     -0.48061  -3.07665  -0.91162      63  -0.48061  -3.07665  -0.91162
    30)    -1.58543  -4.40810  -0.51815     -1.58543  -4.40810  -0.51815      64  -1.58543  -4.40810  -0.51815
    31)    -2.17764  -3.48703   1.63891     -2.17764  -3.48703   1.63891      65  -2.17764  -3.48703   1.63891
    32)    -0.97787  -2.25428   1.37816     -0.97787  -2.25428   1.37816      66  -0.97787  -2.25428   1.37816
    33)    -2.63788  -1.78655   1.85367     -2.63788  -1.78655   1.85367      67  -2.63788  -1.78655   1.85367
    34)    -3.97035  -4.02198  -0.06809     -3.97035  -4.02198  -0.06809      68  -3.97035  -4.02198  -0.06809
    35)    -4.61330  -2.39779   0.23434     -4.61330  -2.39779   0.23434      69  -4.61330  -2.39779   0.23434
    36)    -4.27616  -2.92613  -1.43363     -4.27616  -2.92613  -1.43363      70  -4.27616  -2.92613  -1.43363
    37)    -6.92068   1.21122  -1.17693     -6.92068   1.21122  -1.17693      72  -6.92068   1.21122  -1.17693
    38)    -5.54081   2.30907  -1.08615     -5.54081   2.30907  -1.08615      73  -5.54081   2.30907  -1.08615
    39)    -4.90118   1.65674   2.61506     -4.90118   1.65674   2.61506      74  -4.90118   1.65674   2.61506
    40)    -4.30180   2.58194   1.23631     -4.30180   2.58194   1.23631      75  -4.30180   2.58194   1.23631
    41)    -6.76969   2.33479   1.06507     -6.76969   2.33479   1.06507      76  -6.76969   2.33479   1.06507
    42)    -6.62876   0.58008   1.20202     -6.62876   0.58008   1.20202      77  -6.62876   0.58008   1.20202
    43)    -3.25378   1.37797  -0.68608     -3.25378   1.37797  -0.68608      40  -3.25378   1.37797  -0.68608
    44)    -2.20417  -0.68089  -0.82435     -2.20417  -0.68089  -0.82435      34  -2.20417  -0.68089  -0.82435

 Total nr. of (C)SFOs (summation over all irreps) :  1053

 Specify PRINT SFO in the input file to get a full list

 Nr. of SFOs for ir.rep.           A :  1053



 ================================
 (Slater-type)  F U N C T I O N S  ***  (Basis and Fit)  ***
 ================================
  

 Atom Type    1  (Pd)
 ==============

 Valence Basis Sets:  26
 -----------------------
   1 S  306.000000
   1 S   76.400000
   1 S   45.900000
   2 S   53.800000
   2 S   19.550000
   3 S   10.150000
   3 S    6.650000
   4 S    6.150000
   4 S    3.900000
   5 S    2.500000
   5 S    1.450000
   5 S    0.850000
   2 P   29.100000
   2 P   18.750000
   3 P   11.250000
   3 P    8.100000
   4 P    5.950000
   4 P    3.950000
   4 P    2.700000
   3 D   17.550000
   3 D   10.450000
   3 D    6.900000
   4 D    4.250000
   4 D    2.200000
   4 D    1.100000
   5 P    1.450000

 Charge Fitting Sets (for the computation of the Coulomb Potential):  58
 -----------------------------------------------------------------------
   1 S  612.000000
   1 S  446.101000
   1 S  325.174000
   1 S  237.027000
   1 S  172.774000
   1 S  125.939000
   1 S   91.800000
   1 S   53.670000
   2 S   58.190000
   2 S   38.430000
   3 S   37.300000
   3 S   26.280000
   4 S   24.500000
   4 S   18.000000
   5 S   16.470000
   5 S   12.460000
   6 S   11.300000
   6 S    8.740000
   7 S    7.890000
   7 S    6.210000
   8 S    5.590000
   8 S    4.470000
   8 S    3.570000
   9 S    3.210000
   9 S    2.600000
   9 S    2.100000
   9 S    1.700000
   2 P   64.650000
   3 P   49.410000
   4 P   37.530000
   5 P   28.620000
   6 P   21.980000
   6 P   14.500000
   7 P   11.220000
   7 P    7.620000
   8 P    5.940000
   8 P    4.130000
   9 P    3.240000
   9 P    2.300000
   3 D   56.350000
   4 D   37.260000
   5 D   25.120000
   6 D   17.230000
   6 D   10.190000
   7 D    7.110000
   7 D    4.360000
   8 D    3.090000
   8 D    1.950000
   4 F   47.900000
   5 F   28.270000
   6 F   17.190000
   6 F    9.040000
   7 F    5.640000
   7 F    3.100000
   5 G   20.900000
   6 G    9.980000
   7 G    4.980000
   7 G    2.200000

 Atom Type    2  (C)
 ==============

 Valence Basis Sets:   9
 -----------------------
   1 S    7.680000
   1 S    5.000000
   2 S    1.280000
   2 S    2.100000
   2 S    4.600000
   2 P    0.820000
   2 P    1.480000
   2 P    2.940000
   3 D    2.200000

 Charge Fitting Sets (for the computation of the Coulomb Potential):  22
 -----------------------------------------------------------------------
   1 S   15.360000
   2 S   17.530000
   2 S   12.070000
   2 S    8.310000
   2 S    5.730000
   3 S    5.780000
   3 S    4.220000
   3 S    3.080000
   3 S    2.250000
   3 S    1.640000
   2 P    9.880000
   2 P    5.800000
   3 P    5.050000
   3 P    3.230000
   3 P    2.060000
   3 D    7.200000
   3 D    4.400000
   3 D    2.690000
   3 D    1.640000
   4 F    5.400000
   4 F    3.550000
   5 G    4.500000

 Atom Type    3  (H)
 ==============

 Valence Basis Sets:   4
 -----------------------
   1 S    0.690000
   1 S    0.920000
   1 S    1.580000
   2 P    1.250000

 Charge Fitting Sets (for the computation of the Coulomb Potential):  11
 -----------------------------------------------------------------------
   1 S    3.160000
   1 S    2.090000
   1 S    1.380000
   2 S    1.500000
   2 P    4.000000
   2 P    2.650000
   2 P    1.750000
   3 D    4.000000
   3 D    2.500000
   4 F    3.000000
   5 G    4.000000

 Atom Type    4  (N)
 ==============

 Valence Basis Sets:   9
 -----------------------
   1 S    8.740000
   1 S    5.900000
   2 S    5.150000
   2 S    2.500000
   2 S    1.500000
   2 P    3.680000
   2 P    1.880000
   2 P    1.000000
   3 D    2.200000

 Charge Fitting Sets (for the computation of the Coulomb Potential):  22
 -----------------------------------------------------------------------
   1 S   17.480000
   2 S   20.150000
   2 S   13.990000
   2 S    9.710000
   2 S    6.740000
   3 S    6.860000
   3 S    5.040000
   3 S    3.700000
   3 S    2.720000
   3 S    2.000000
   2 P   11.320000
   2 P    6.730000
   3 P    5.920000
   3 P    3.820000
   3 P    2.460000
   3 D    8.100000
   3 D    5.080000
   3 D    3.190000
   3 D    2.000000
   4 F    5.800000
   4 F    3.600000
   5 G    4.500000

 Atom Type    5  (S)
 ==============

 Valence Basis Sets:  13
 -----------------------
   1 S   19.400000
   1 S   14.350000
   2 S    5.900000
   2 S    4.250000
   2 P    8.050000
   2 P    4.550000
   3 S    3.450000
   3 S    2.250000
   3 S    1.500000
   3 P    2.650000
   3 P    1.600000
   3 P    1.000000
   3 D    2.100000

 Charge Fitting Sets (for the computation of the Coulomb Potential):  30
 -----------------------------------------------------------------------
   1 S   38.800000
   1 S   23.350000
   2 S   26.020000
   2 S   17.570000
   3 S   17.420000
   3 S   12.500000
   3 S    8.980000
   4 S    8.520000
   4 S    6.360000
   4 S    4.750000
   5 S    4.420000
   5 S    3.390000
   5 S    2.600000
   5 S    2.000000
   2 P   27.450000
   3 P   20.250000
   4 P   14.920000
   4 P    8.780000
   5 P    6.520000
   5 P    4.040000
   5 P    2.500000
   3 D   20.900000
   4 D   14.560000
   4 D    8.130000
   5 D    5.740000
   5 D    3.390000
   5 D    2.000000
   4 F    5.000000
   4 F    3.000000
   5 G    3.620000

 Atom Type    6  (O)
 ==============

 Valence Basis Sets:   9
 -----------------------
   1 S    9.800000
   1 S    6.800000
   2 S    7.580000
   2 S    2.880000
   2 S    1.720000
   2 P    4.080000
   2 P    2.080000
   2 P    1.120000
   3 D    2.000000

 Charge Fitting Sets (for the computation of the Coulomb Potential):  22
 -----------------------------------------------------------------------
   1 S   19.600000
   2 S   22.600000
   2 S   15.680000
   2 S   10.890000
   2 S    7.560000
   3 S    7.690000
   3 S    5.650000
   3 S    4.150000
   3 S    3.050000
   3 S    2.240000
   2 P   12.860000
   2 P    7.680000
   3 P    6.780000
   3 P    4.390000
   3 P    2.840000
   3 D    8.800000
   3 D    5.580000
   3 D    3.530000
   3 D    2.240000
   4 F    6.200000
   4 F    3.700000
   5 G    4.500000

 Atom Type    7  (Cl)
 ==============

 Valence Basis Sets:  13
 -----------------------
   1 S   20.300000
   1 S   15.250000
   2 S    6.250000
   2 S    4.450000
   2 P    8.850000
   2 P    5.050000
   3 S    3.450000
   3 S    2.300000
   3 S    1.600000
   3 P    3.350000
   3 P    2.050000
   3 P    1.200000
   3 D    2.000000

 Charge Fitting Sets (for the computation of the Coulomb Potential):  30
 -----------------------------------------------------------------------
   1 S   40.600000
   1 S   24.830000
   2 S   28.080000
   2 S   19.200000
   3 S   19.250000
   3 S   13.970000
   3 S   10.130000
   4 S    9.710000
   4 S    7.320000
   4 S    5.510000
   5 S    5.170000
   5 S    4.000000
   5 S    3.100000
   5 S    2.400000
   2 P   29.150000
   3 P   21.740000
   4 P   16.160000
   4 P    9.600000
   5 P    7.180000
   5 P    4.480000
   5 P    2.800000
   3 D   21.950000
   4 D   15.750000
   4 D    9.040000
   5 D    6.550000
   5 D    3.960000
   5 D    2.400000
   4 F    5.000000
   4 F    3.000000
   5 G    3.500000

 Atom Type    8  (F)
 ==============

 Valence Basis Sets:   9
 -----------------------
   1 S   10.880000
   1 S    7.700000
   2 S    3.240000
   2 S    1.940000
   2 S    0.740000
   2 P    4.540000
   2 P    2.300000
   2 P    1.240000
   3 D    2.000000

 Charge Fitting Sets (for the computation of the Coulomb Potential):  23
 -----------------------------------------------------------------------
   1 S   21.760000
   2 S   24.390000
   2 S   16.560000
   2 S   11.240000
   2 S    7.630000
   3 S    7.600000
   3 S    5.480000
   3 S    3.950000
   3 S    2.850000
   3 S    2.050000
   3 S    1.480000
   2 P   14.400000
   2 P    7.530000
   3 P    5.900000
   3 P    3.420000
   3 P    1.980000
   3 D    9.700000
   3 D    6.160000
   3 D    3.910000
   3 D    2.480000
   4 F    6.500000
   4 F    3.750000
   5 G    4.500000

 Atom Type    9  (C)
 ==============

 Valence Basis Sets:   9
 -----------------------
   1 S    7.680000
   1 S    5.000000
   2 S    1.280000
   2 S    2.100000
   2 S    4.600000
   2 P    0.820000
   2 P    1.480000
   2 P    2.940000
   3 D    2.200000

 Charge Fitting Sets (for the computation of the Coulomb Potential):  22
 -----------------------------------------------------------------------
   1 S   15.360000
   2 S   17.530000
   2 S   12.070000
   2 S    8.310000
   2 S    5.730000
   3 S    5.780000
   3 S    4.220000
   3 S    3.080000
   3 S    2.250000
   3 S    1.640000
   2 P    9.880000
   2 P    5.800000
   3 P    5.050000
   3 P    3.230000
   3 P    2.060000
   3 D    7.200000
   3 D    4.400000
   3 D    2.690000
   3 D    1.640000
   4 F    5.400000
   4 F    3.550000
   5 G    4.500000

 Atom Type   10  (H)
 ==============

 Valence Basis Sets:   4
 -----------------------
   1 S    0.690000
   1 S    0.920000
   1 S    1.580000
   2 P    1.250000

 Charge Fitting Sets (for the computation of the Coulomb Potential):  11
 -----------------------------------------------------------------------
   1 S    3.160000
   1 S    2.090000
   1 S    1.380000
   2 S    1.500000
   2 P    4.000000
   2 P    2.650000
   2 P    1.750000
   3 D    4.000000
   3 D    2.500000
   4 F    3.000000
   5 G    4.000000

 Atom Type   11  (P)
 ==============

 Valence Basis Sets:  13
 -----------------------
   1 S   18.000000
   1 S   13.350000
   2 S    5.600000
   2 S    4.050000
   2 P    7.450000
   2 P    4.100000
   3 S    2.700000
   3 S    1.850000
   3 S    1.300000
   3 P    2.300000
   3 P    1.350000
   3 P    0.850000
   3 D    1.900000

 Charge Fitting Sets (for the computation of the Coulomb Potential):  30
 -----------------------------------------------------------------------
   1 S   36.000000
   1 S   21.450000
   2 S   23.670000
   2 S   15.860000
   3 S   15.600000
   3 S   11.130000
   3 S    7.940000
   4 S    7.490000
   4 S    5.560000
   4 S    4.130000
   5 S    3.810000
   5 S    2.910000
   5 S    2.230000
   5 S    1.700000
   2 P   25.450000
   3 P   18.490000
   4 P   13.440000
   4 P    7.810000
   5 P    5.730000
   5 P    3.510000
   5 P    2.150000
   3 D   19.350000
   4 D   13.230000
   4 D    7.250000
   5 D    5.040000
   5 D    2.930000
   5 D    1.700000
   4 F    5.000000
   4 F    3.000000
   5 G    3.750000


 BAS: List of all Elementary Cartesian Basis Functions
 =====================================================

 The numbering in the list below (to the right of the function characteristics) is referred
 to in print-outs of MO eigenvectors and Mulliken populations in the BAS representation
 (as contrasted to the SFO representation).

 Notes:
 1. The functions are characterized by a polynomial prefactor (powers of x,y,z and r) and
    an exponential decay factor alpha.
 2. Since the basis sets are specific for an atom TYPE, the individual functions occur on
    all atoms of that type.
 3. The word 'Core' in the left margin signals that it is a Core Function (CF) : not a
    degree of freedom in the valence set, but only used to ensure orthogonalization of
    the other valence basis functions on the frozen Core Orbitals.


 (power of) X  Y  Z  R     Alpha  on Atom
            ==========     =====     ==========

 Pd                                   1
                                  ---------------------------------------------------------------------------
            0  0  0  0   306.000      1
            0  0  0  0    76.400      2
            0  0  0  0    45.900      3
            0  0  0  1    53.800      4
            0  0  0  1    19.550      5
            0  0  0  2    10.150      6
            0  0  0  2     6.650      7
            0  0  0  3     6.150      8
            0  0  0  3     3.900      9
            0  0  0  4     2.500     10
            0  0  0  4     1.450     11
            0  0  0  4     0.850     12
            1  0  0  0    29.100     13
            0  1  0  0    29.100     14
            0  0  1  0    29.100     15
            1  0  0  0    18.750     16
            0  1  0  0    18.750     17
            0  0  1  0    18.750     18
            1  0  0  1    11.250     19
            0  1  0  1    11.250     20
            0  0  1  1    11.250     21
            1  0  0  1     8.100     22
            0  1  0  1     8.100     23
            0  0  1  1     8.100     24
            1  0  0  2     5.950     25
            0  1  0  2     5.950     26
            0  0  1  2     5.950     27
            1  0  0  2     3.950     28
            0  1  0  2     3.950     29
            0  0  1  2     3.950     30
            1  0  0  2     2.700     31
            0  1  0  2     2.700     32
            0  0  1  2     2.700     33
            2  0  0  0    17.550     34
            1  1  0  0    17.550     35
            1  0  1  0    17.550     36
            0  2  0  0    17.550     37
            0  1  1  0    17.550     38
            0  0  2  0    17.550     39
            2  0  0  0    10.450     40
            1  1  0  0    10.450     41
            1  0  1  0    10.450     42
            0  2  0  0    10.450     43
            0  1  1  0    10.450     44
            0  0  2  0    10.450     45
            2  0  0  0     6.900     46
            1  1  0  0     6.900     47
            1  0  1  0     6.900     48
            0  2  0  0     6.900     49
            0  1  1  0     6.900     50
            0  0  2  0     6.900     51
            2  0  0  1     4.250     52
            1  1  0  1     4.250     53
            1  0  1  1     4.250     54
            0  2  0  1     4.250     55
            0  1  1  1     4.250     56
            0  0  2  1     4.250     57
            2  0  0  1     2.200     58
            1  1  0  1     2.200     59
            1  0  1  1     2.200     60
            0  2  0  1     2.200     61
            0  1  1  1     2.200     62
            0  0  2  1     2.200     63
            2  0  0  1     1.100     64
            1  1  0  1     1.100     65
            1  0  1  1     1.100     66
            0  2  0  1     1.100     67
            0  1  1  1     1.100     68
            0  0  2  1     1.100     69
            1  0  0  3     1.450     70
            0  1  0  3     1.450     71
            0  0  1  3     1.450     72

 C                                    2    3    4    5    6    7    8    9   10   11   12   13   14   15
                                  ---------------------------------------------------------------------------
            0  0  0  0     7.680     73   93  113  133  153  173  193  213  233  253  273  293  313  333
            0  0  0  0     5.000     74   94  114  134  154  174  194  214  234  254  274  294  314  334
            0  0  0  1     1.280     75   95  115  135  155  175  195  215  235  255  275  295  315  335
            0  0  0  1     2.100     76   96  116  136  156  176  196  216  236  256  276  296  316  336
            0  0  0  1     4.600     77   97  117  137  157  177  197  217  237  257  277  297  317  337
            1  0  0  0     0.820     78   98  118  138  158  178  198  218  238  258  278  298  318  338
            0  1  0  0     0.820     79   99  119  139  159  179  199  219  239  259  279  299  319  339
            0  0  1  0     0.820     80  100  120  140  160  180  200  220  240  260  280  300  320  340
            1  0  0  0     1.480     81  101  121  141  161  181  201  221  241  261  281  301  321  341
            0  1  0  0     1.480     82  102  122  142  162  182  202  222  242  262  282  302  322  342
            0  0  1  0     1.480     83  103  123  143  163  183  203  223  243  263  283  303  323  343
            1  0  0  0     2.940     84  104  124  144  164  184  204  224  244  264  284  304  324  344
            0  1  0  0     2.940     85  105  125  145  165  185  205  225  245  265  285  305  325  345
            0  0  1  0     2.940     86  106  126  146  166  186  206  226  246  266  286  306  326  346
            2  0  0  0     2.200     87  107  127  147  167  187  207  227  247  267  287  307  327  347
            1  1  0  0     2.200     88  108  128  148  168  188  208  228  248  268  288  308  328  348
            1  0  1  0     2.200     89  109  129  149  169  189  209  229  249  269  289  309  329  349
            0  2  0  0     2.200     90  110  130  150  170  190  210  230  250  270  290  310  330  350
            0  1  1  0     2.200     91  111  131  151  171  191  211  231  251  271  291  311  331  351
            0  0  2  0     2.200     92  112  132  152  172  192  212  232  252  272  292  312  332  352

 H                                   16   17   18   19   20   21   22   23
                                  ---------------------------------------------------------------------------
            0  0  0  0     0.690    353  359  365  371  377  383  389  395
            0  0  0  0     0.920    354  360  366  372  378  384  390  396
            0  0  0  0     1.580    355  361  367  373  379  385  391  397
            1  0  0  0     1.250    356  362  368  374  380  386  392  398
            0  1  0  0     1.250    357  363  369  375  381  387  393  399
            0  0  1  0     1.250    358  364  370  376  382  388  394  400

 N                                   24
                                  ---------------------------------------------------------------------------
            0  0  0  0     8.740    401
            0  0  0  0     5.900    402
            0  0  0  1     5.150    403
            0  0  0  1     2.500    404
            0  0  0  1     1.500    405
            1  0  0  0     3.680    406
            0  1  0  0     3.680    407
            0  0  1  0     3.680    408
            1  0  0  0     1.880    409
            0  1  0  0     1.880    410
            0  0  1  0     1.880    411
            1  0  0  0     1.000    412
            0  1  0  0     1.000    413
            0  0  1  0     1.000    414
            2  0  0  0     2.200    415
            1  1  0  0     2.200    416
            1  0  1  0     2.200    417
            0  2  0  0     2.200    418
            0  1  1  0     2.200    419
            0  0  2  0     2.200    420

 S                                   25
                                  ---------------------------------------------------------------------------
            0  0  0  0    19.400    421
            0  0  0  0    14.350    422
            0  0  0  1     5.900    423
            0  0  0  1     4.250    424
            1  0  0  0     8.050    425
            0  1  0  0     8.050    426
            0  0  1  0     8.050    427
            1  0  0  0     4.550    428
            0  1  0  0     4.550    429
            0  0  1  0     4.550    430
            0  0  0  2     3.450    431
            0  0  0  2     2.250    432
            0  0  0  2     1.500    433
            1  0  0  1     2.650    434
            0  1  0  1     2.650    435
            0  0  1  1     2.650    436
            1  0  0  1     1.600    437
            0  1  0  1     1.600    438
            0  0  1  1     1.600    439
            1  0  0  1     1.000    440
            0  1  0  1     1.000    441
            0  0  1  1     1.000    442
            2  0  0  0     2.100    443
            1  1  0  0     2.100    444
            1  0  1  0     2.100    445
            0  2  0  0     2.100    446
            0  1  1  0     2.100    447
            0  0  2  0     2.100    448

 O                                   26   27   28
                                  ---------------------------------------------------------------------------
            0  0  0  0     9.800    449  469  489
            0  0  0  0     6.800    450  470  490
            0  0  0  1     7.580    451  471  491
            0  0  0  1     2.880    452  472  492
            0  0  0  1     1.720    453  473  493
            1  0  0  0     4.080    454  474  494
            0  1  0  0     4.080    455  475  495
            0  0  1  0     4.080    456  476  496
            1  0  0  0     2.080    457  477  497
            0  1  0  0     2.080    458  478  498
            0  0  1  0     2.080    459  479  499
            1  0  0  0     1.120    460  480  500
            0  1  0  0     1.120    461  481  501
            0  0  1  0     1.120    462  482  502
            2  0  0  0     2.000    463  483  503
            1  1  0  0     2.000    464  484  504
            1  0  1  0     2.000    465  485  505
            0  2  0  0     2.000    466  486  506
            0  1  1  0     2.000    467  487  507
            0  0  2  0     2.000    468  488  508

 Cl                                  29
                                  ---------------------------------------------------------------------------
            0  0  0  0    20.300    509
            0  0  0  0    15.250    510
            0  0  0  1     6.250    511
            0  0  0  1     4.450    512
            1  0  0  0     8.850    513
            0  1  0  0     8.850    514
            0  0  1  0     8.850    515
            1  0  0  0     5.050    516
            0  1  0  0     5.050    517
            0  0  1  0     5.050    518
            0  0  0  2     3.450    519
            0  0  0  2     2.300    520
            0  0  0  2     1.600    521
            1  0  0  1     3.350    522
            0  1  0  1     3.350    523
            0  0  1  1     3.350    524
            1  0  0  1     2.050    525
            0  1  0  1     2.050    526
            0  0  1  1     2.050    527
            1  0  0  1     1.200    528
            0  1  0  1     1.200    529
            0  0  1  1     1.200    530
            2  0  0  0     2.000    531
            1  1  0  0     2.000    532
            1  0  1  0     2.000    533
            0  2  0  0     2.000    534
            0  1  1  0     2.000    535
            0  0  2  0     2.000    536

 F                                   30   31   32   33
                                  ---------------------------------------------------------------------------
            0  0  0  0    10.880    537  557  577  597
            0  0  0  0     7.700    538  558  578  598
            0  0  0  1     3.240    539  559  579  599
            0  0  0  1     1.940    540  560  580  600
            0  0  0  1     0.740    541  561  581  601
            1  0  0  0     4.540    542  562  582  602
            0  1  0  0     4.540    543  563  583  603
            0  0  1  0     4.540    544  564  584  604
            1  0  0  0     2.300    545  565  585  605
            0  1  0  0     2.300    546  566  586  606
            0  0  1  0     2.300    547  567  587  607
            1  0  0  0     1.240    548  568  588  608
            0  1  0  0     1.240    549  569  589  609
            0  0  1  0     1.240    550  570  590  610
            2  0  0  0     2.000    551  571  591  611
            1  1  0  0     2.000    552  572  592  612
            1  0  1  0     2.000    553  573  593  613
            0  2  0  0     2.000    554  574  594  614
            0  1  1  0     2.000    555  575  595  615
            0  0  2  0     2.000    556  576  596  616

 C                                   34   35   36   37   38   39   40   41   42   43   44   45   46   47
                                  ---------------------------------------------------------------------------
            0  0  0  0     7.680    617  637  657  677  697  717  737  757  777  797  817  837  857  877
            0  0  0  0     5.000    618  638  658  678  698  718  738  758  778  798  818  838  858  878
            0  0  0  1     1.280    619  639  659  679  699  719  739  759  779  799  819  839  859  879
            0  0  0  1     2.100    620  640  660  680  700  720  740  760  780  800  820  840  860  880
            0  0  0  1     4.600    621  641  661  681  701  721  741  761  781  801  821  841  861  881
            1  0  0  0     0.820    622  642  662  682  702  722  742  762  782  802  822  842  862  882
            0  1  0  0     0.820    623  643  663  683  703  723  743  763  783  803  823  843  863  883
            0  0  1  0     0.820    624  644  664  684  704  724  744  764  784  804  824  844  864  884
            1  0  0  0     1.480    625  645  665  685  705  725  745  765  785  805  825  845  865  885
            0  1  0  0     1.480    626  646  666  686  706  726  746  766  786  806  826  846  866  886
            0  0  1  0     1.480    627  647  667  687  707  727  747  767  787  807  827  847  867  887
            1  0  0  0     2.940    628  648  668  688  708  728  748  768  788  808  828  848  868  888
            0  1  0  0     2.940    629  649  669  689  709  729  749  769  789  809  829  849  869  889
            0  0  1  0     2.940    630  650  670  690  710  730  750  770  790  810  830  850  870  890
            2  0  0  0     2.200    631  651  671  691  711  731  751  771  791  811  831  851  871  891
            1  1  0  0     2.200    632  652  672  692  712  732  752  772  792  812  832  852  872  892
            1  0  1  0     2.200    633  653  673  693  713  733  753  773  793  813  833  853  873  893
            0  2  0  0     2.200    634  654  674  694  714  734  754  774  794  814  834  854  874  894
            0  1  1  0     2.200    635  655  675  695  715  735  755  775  795  815  835  855  875  895
            0  0  2  0     2.200    636  656  676  696  716  736  756  776  796  816  836  856  876  896

 H                                   48   49   50   51   52   53   54   55   56   57   58   59   60   61   62
                                     63   64   65   66   67   68   69   70   71   72   73   74   75   76
                                  ---------------------------------------------------------------------------
            0  0  0  0     0.690    897  903  909  915  921  927  933  939  945  951  957  963  969  975  981
                                    987  993  999 1005 1011 1017 1023 1029 1035 1041 1047 1053 1059 1065
            0  0  0  0     0.920    898  904  910  916  922  928  934  940  946  952  958  964  970  976  982
                                    988  994 1000 1006 1012 1018 1024 1030 1036 1042 1048 1054 1060 1066
            0  0  0  0     1.580    899  905  911  917  923  929  935  941  947  953  959  965  971  977  983
                                    989  995 1001 1007 1013 1019 1025 1031 1037 1043 1049 1055 1061 1067
            1  0  0  0     1.250    900  906  912  918  924  930  936  942  948  954  960  966  972  978  984
                                    990  996 1002 1008 1014 1020 1026 1032 1038 1044 1050 1056 1062 1068
            0  1  0  0     1.250    901  907  913  919  925  931  937  943  949  955  961  967  973  979  985
                                    991  997 1003 1009 1015 1021 1027 1033 1039 1045 1051 1057 1063 1069
            0  0  1  0     1.250    902  908  914  920  926  932  938  944  950  956  962  968  974  980  986
                                    992  998 1004 1010 1016 1022 1028 1034 1040 1046 1052 1058 1064 1070

 P                                   77
                                  ---------------------------------------------------------------------------
            0  0  0  0    18.000   1071
            0  0  0  0    13.350   1072
            0  0  0  1     5.600   1073
            0  0  0  1     4.050   1074
            1  0  0  0     7.450   1075
            0  1  0  0     7.450   1076
            0  0  1  0     7.450   1077
            1  0  0  0     4.100   1078
            0  1  0  0     4.100   1079
            0  0  1  0     4.100   1080
            0  0  0  2     2.700   1081
            0  0  0  2     1.850   1082
            0  0  0  2     1.300   1083
            1  0  0  1     2.300   1084
            0  1  0  1     2.300   1085
            0  0  1  1     2.300   1086
            1  0  0  1     1.350   1087
            0  1  0  1     1.350   1088
            0  0  1  1     1.350   1089
            1  0  0  1     0.850   1090
            0  1  0  1     0.850   1091
            0  0  1  1     0.850   1092
            2  0  0  0     1.900   1093
            1  1  0  0     1.900   1094
            1  0  1  0     1.900   1095
            0  2  0  0     1.900   1096
            0  1  1  0     1.900   1097
            0  0  2  0     1.900   1098

 Total number of charge fitting functions (nprimf)      5433
 Total number of Cartesian basis functions (naos)       1098
 Total number of Cartesian core functions  (ncos)          0

1
 ***************************************************************************************************



                                              ***********************
                                              *  T E C H N I C A L  *
                                              ***********************
  



 =============================================================
 P A R A L L E L I Z A T I O N  and  V E C T O R I Z A T I O N
 =============================================================
  
 Nr of parallel processes:                               16
 Maximum vector length in NumInt loops:                 128



 =====================
 S C F   U P D A T E S
 =====================
  
 Max. nr. of cycles:                               300
 Convergence criterion:                              0.0000010000
   secondary criterion:                              0.0010000000

 Mix parameter (when DIIS does not apply):           0.2000000000
 Mixed ADIIS+SDIIS will be used                  
    Max number of expansion vectors:                10
    Pure ADIIS when Max([F,P]) is above              0.1000000000
    Pure SDIIS when Max([F,P]) is below              0.0010000000
 Automatic ElectronSmearing (in case of problematic SCF convergence) disabled



 =================
 P R E C I S I O N  ***  (General: NumInt, NeglectFunctionTails, ...)  ***
 =================
  

 NumInt:           Target precision:                 8.0000000000
 -------           Initial precision:                8.0000000000
                   Min. precision (optimization):    8.0000000000

 Neglect Functions:          Basis functions:        0.1000000000E-09
 ------------------          Fit functions:          0.1000000000E-09



 ===========================
 L I N E A R   S C A L I N G
 ===========================
  

 Cut-off radii density fit:                        0.1000000000E-11
 Overlap cut-off criterion AO matrix elements:     0.1000000000E-09
 Cut-offs for Coulomb potential and fitted density:0.1000000000E-11
 Cut-off criterion for Coulomb multipole terms:    0.1000000000E-11
 Progressive Convergence parameter:                 0.000000000    
1
 ***************************************************************************************************



                                            ***************************
                                            *  C O M P U T A T I O N  *
                                            ***************************
  

 Number of elements of the density matrix on this node (used, total):     36964    603351



 ===========================================
 Numerical Integration : Fuzzy Cells (Becke)
 ===========================================
  
 Becke grid quality: VERYGOOD       
  
 Lebedev angular grid order:             min:  13 max:  47
 Nr. of radial points:                   min:  64 max: 183

 Total nr. of points:    1872560
 Nr. of blocks:            14630
 Block length:               128
 Nr. of dummy points:         80


 Test of Precision of the Numerical Integration Grid
 ===================================================

 Integral of the Total Core Density:                   0.00000000000000



 ========================
 Density Fitting (zlmFit)
 ========================
  
 ZlmFit Fit Quality: VERYGOOD       
  
 Max L-expansion:                        min:   9 max:  11
 Nr. of radial interpolation points:     min: 120 max: 400



 ======================
 RI Hartree-Fock Scheme
 ======================
  
 Fit Set Quality     : VERYGOOD
 Threshold Quality   : VERYGOOD
 Integration Quality : VERYGOOD
 Fit Generation Method : AUTO
 Response Quality    : DEFAULT
 Is Range Separated  :  F
 
 RIHartreeFock Dependency: number of modified vectors:          67



 =====
 S C F  ***  ScaSCF  ***
 =====
  
 Initial density matrix is calculated as sum of fragments

 CYCLE    1
 SCF Error: norm([F,P])=      4.050359482755, max([F,P])=      2.288985370437
 orbitals (Q,E):
 ---------------
 A :174...193        ( 2.00    -0.3110)  ( 2.00    -0.3069)  ( 2.00    -0.2979)  ( 2.00    -0.2907)
                     ( 2.00    -0.2842)  ( 2.00    -0.2758)  ( 2.00    -0.2639)  ( 2.00    -0.2512)
                     ( 2.00    -0.2375)  ( 2.00    -0.2290)  ( 0.00    -0.0614)  ( 0.00    -0.0557)
                     ( 0.00    -0.0228)  ( 0.00    -0.0152)  ( 0.00    -0.0067)  ( 0.00    -0.0035)
                     ( 0.00     0.0029)  ( 0.00     0.0093)  ( 0.00     0.0104)  ( 0.00     0.0158)

 CYCLE    2
   MIX coefficients:  0.8000  0.2000
 SCF Error: norm([F,P])=      0.311041286091, max([F,P])=      0.042385971996
 orbitals (Q,E):
 ---------------
 A :174...184        ( 2.00    -0.3112)  ( 2.00    -0.3070)  ( 2.00    -0.3008)  ( 2.00    -0.2965)
                     ( 2.00    -0.2850)  ( 2.00    -0.2826)  ( 2.00    -0.2606)  ( 2.00    -0.2559)
                     ( 2.00    -0.2412)  ( 2.00    -0.2289)  ( 0.00    -0.0666)

 CYCLE    3
  SDIIS (wt  0.000): -0.3899  1.3899
 A-DIIS (wt  1.000):  0.0000  1.0000
  DIIS coefficients:  0.0000  1.0000
 SCF Error: norm([F,P])=      0.109258559106, max([F,P])=      0.020461916872
 orbitals (Q,E):
 ---------------
 A :174...184        ( 2.00    -0.3115)  ( 2.00    -0.3086)  ( 2.00    -0.2922)  ( 2.00    -0.2874)
                     ( 2.00    -0.2796)  ( 2.00    -0.2744)  ( 2.00    -0.2617)  ( 2.00    -0.2469)
                     ( 2.00    -0.2305)  ( 2.00    -0.2205)  ( 0.00    -0.0662)

 CYCLE    4
  SDIIS (wt  0.000):  0.4520 -0.0877  0.6357
 A-DIIS (wt  1.000):  0.0000  0.6442  0.3558
  DIIS coefficients:  0.0000  0.6442  0.3558
 SCF Error: norm([F,P])=      0.209156884621, max([F,P])=      0.024191133189
 orbitals (Q,E):
 ---------------
 A :174...184        ( 2.00    -0.3076)  ( 2.00    -0.2997)  ( 2.00    -0.2933)  ( 2.00    -0.2875)
                     ( 2.00    -0.2778)  ( 2.00    -0.2760)  ( 2.00    -0.2520)  ( 2.00    -0.2487)
                     ( 2.00    -0.2320)  ( 2.00    -0.2213)  ( 0.00    -0.0587)

 CYCLE    5
  SDIIS (wt  0.911): -0.4906  0.7807 -0.1867  0.8966
 A-DIIS (wt  0.089):  0.0000  0.0000  0.0175  0.9825
  DIIS coefficients: -0.4472  0.7116 -0.1686  0.9042
 SCF Error: norm([F,P])=      0.058265132076, max([F,P])=      0.009766596993
 orbitals (Q,E):
 ---------------
 A :174...184        ( 2.00    -0.3109)  ( 2.00    -0.3046)  ( 2.00    -0.2960)  ( 2.00    -0.2894)
                     ( 2.00    -0.2815)  ( 2.00    -0.2788)  ( 2.00    -0.2570)  ( 2.00    -0.2504)
                     ( 2.00    -0.2339)  ( 2.00    -0.2234)  ( 0.00    -0.0630)

 CYCLE    6
  SDIIS (wt  0.997): -0.1722  0.2116 -0.1055  0.3847  0.6814
 A-DIIS (wt  0.003):  0.0000  0.0000  0.0000  0.0265  0.9735
  DIIS coefficients: -0.1717  0.2109 -0.1052  0.3836  0.6823
 SCF Error: norm([F,P])=      0.014640735945, max([F,P])=      0.001321265398
 orbitals (Q,E):
 ---------------
 A :174...184        ( 2.00    -0.3100)  ( 2.00    -0.3029)  ( 2.00    -0.2951)  ( 2.00    -0.2885)
                     ( 2.00    -0.2805)  ( 2.00    -0.2781)  ( 2.00    -0.2554)  ( 2.00    -0.2498)
                     ( 2.00    -0.2333)  ( 2.00    -0.2226)  ( 0.00    -0.0614)

 CYCLE    7
  SDIIS (wt  1.000):  0.0137 -0.0480 -0.0030  0.0368  0.4304  0.5701
  DIIS coefficients:  0.0137 -0.0480 -0.0030  0.0368  0.4304  0.5701
 SCF Error: norm([F,P])=      0.007070502914, max([F,P])=      0.000818440295
 orbitals (Q,E):
 ---------------
 A :174...184        ( 2.00    -0.3102)  ( 2.00    -0.3032)  ( 2.00    -0.2952)  ( 2.00    -0.2886)
                     ( 2.00    -0.2807)  ( 2.00    -0.2781)  ( 2.00    -0.2558)  ( 2.00    -0.2497)
                     ( 2.00    -0.2332)  ( 2.00    -0.2226)  ( 0.00    -0.0619)

 CYCLE    8
  SDIIS (wt  1.000):  0.0192 -0.0415  0.0052 -0.0095  0.1827  0.3156  0.5283
  DIIS coefficients:  0.0192 -0.0415  0.0052 -0.0095  0.1827  0.3156  0.5283
 SCF Error: norm([F,P])=      0.001889558774, max([F,P])=      0.000224675486
 orbitals (Q,E):
 ---------------
 A :174...184        ( 2.00    -0.3102)  ( 2.00    -0.3032)  ( 2.00    -0.2952)  ( 2.00    -0.2886)
                     ( 2.00    -0.2807)  ( 2.00    -0.2781)  ( 2.00    -0.2557)  ( 2.00    -0.2497)
                     ( 2.00    -0.2332)  ( 2.00    -0.2226)  ( 0.00    -0.0618)

 CYCLE    9
  SDIIS (wt  1.000):  0.0054 -0.0114  0.0010 -0.0098  0.0222  0.0811  0.3358  0.5757
  DIIS coefficients:  0.0054 -0.0114  0.0010 -0.0098  0.0222  0.0811  0.3358  0.5757
 SCF Error: norm([F,P])=      0.000902137975, max([F,P])=      0.000109513653
 orbitals (Q,E):
 ---------------
 A :174...184        ( 2.00    -0.3102)  ( 2.00    -0.3032)  ( 2.00    -0.2952)  ( 2.00    -0.2886)
                     ( 2.00    -0.2807)  ( 2.00    -0.2781)  ( 2.00    -0.2558)  ( 2.00    -0.2498)
                     ( 2.00    -0.2333)  ( 2.00    -0.2226)  ( 0.00    -0.0619)

 CYCLE   10
  SDIIS (wt  1.000): -0.0009  0.0017 -0.0012 -0.0041 -0.0242 -0.0128  0.0974  0.3500  0.5943
  DIIS coefficients: -0.0009  0.0017 -0.0012 -0.0041 -0.0242 -0.0128  0.0974  0.3500  0.5943
 SCF Error: norm([F,P])=      0.000391549768, max([F,P])=      0.000051196324
 orbitals (Q,E):
 ---------------
 A :174...184        ( 2.00    -0.3102)  ( 2.00    -0.3032)  ( 2.00    -0.2952)  ( 2.00    -0.2886)
                     ( 2.00    -0.2807)  ( 2.00    -0.2781)  ( 2.00    -0.2557)  ( 2.00    -0.2497)
                     ( 2.00    -0.2332)  ( 2.00    -0.2226)  ( 0.00    -0.0619)

 CYCLE   11
  SDIIS (wt  1.000): -0.0020  0.0036 -0.0012 -0.0001 -0.0185 -0.0223 -0.0081  0.0997  0.3771  0.5717
  DIIS coefficients: -0.0020  0.0036 -0.0012 -0.0001 -0.0185 -0.0223 -0.0081  0.0997  0.3771  0.5717
 SCF Error: norm([F,P])=      0.000175747784, max([F,P])=      0.000013408798
 orbitals (Q,E):
 ---------------
 A :174...184        ( 2.00    -0.3102)  ( 2.00    -0.3032)  ( 2.00    -0.2952)  ( 2.00    -0.2886)
                     ( 2.00    -0.2807)  ( 2.00    -0.2781)  ( 2.00    -0.2557)  ( 2.00    -0.2497)
                     ( 2.00    -0.2332)  ( 2.00    -0.2226)  ( 0.00    -0.0619)

 CYCLE   12
  SDIIS (wt  1.000):  0.0004  0.0001 -0.0005 -0.0050 -0.0073 -0.0166 -0.0029  0.1093  0.2980  0.6245
  DIIS coefficients:  0.0004  0.0001 -0.0005 -0.0050 -0.0073 -0.0166 -0.0029  0.1093  0.2980  0.6245
 SCF Error: norm([F,P])=      0.000063547955, max([F,P])=      0.000006489552
 orbitals (Q,E):
 ---------------
 A :174...184        ( 2.00    -0.3102)  ( 2.00    -0.3032)  ( 2.00    -0.2952)  ( 2.00    -0.2886)
                     ( 2.00    -0.2807)  ( 2.00    -0.2781)  ( 2.00    -0.2557)  ( 2.00    -0.2497)
                     ( 2.00    -0.2332)  ( 2.00    -0.2226)  ( 0.00    -0.0619)

 CYCLE   13
  SDIIS (wt  1.000):  0.0000  0.0004  0.0009 -0.0006 -0.0101 -0.0208  0.0073  0.0940  0.4082  0.5208
  DIIS coefficients:  0.0000  0.0004  0.0009 -0.0006 -0.0101 -0.0208  0.0073  0.0940  0.4082  0.5208
 SCF Error: norm([F,P])=      0.000039646650, max([F,P])=      0.000003930554
 orbitals (Q,E):
 ---------------
 A :174...184        ( 2.00    -0.3102)  ( 2.00    -0.3032)  ( 2.00    -0.2952)  ( 2.00    -0.2886)
[...]
     450       24.7799         0.000       
     449       24.5799         0.000       
     448       24.5271         0.000       
     447       24.4147         0.000       
     446       24.3063         0.000       
     445       24.1033         0.000       
     444       23.9886         0.000       
     443       23.9251         0.000       
     442       23.8756         0.000       
     441       23.6402         0.000       
     440       23.5994         0.000       
     439       23.3128         0.000       
     438       23.2391         0.000       
     437       23.0563         0.000       
     436       22.9525         0.000       
     435       22.8086         0.000       
     434       22.5939         0.000       
     433       22.5579         0.000       
     432       22.4157         0.000       
     431       22.2914         0.000       
     430       22.1558         0.000       
     429       22.1317         0.000       
     428       22.0074         0.000       
     427       21.8233         0.000       
     426       21.6544         0.000       
     425       21.5356         0.000       
     424       21.3424         0.000       
     423       21.2895         0.000       
     422       21.2011         0.000       
     421       21.1049         0.000       
     420       21.0706         0.000       
     419       20.9340         0.000       
     418       20.7667         0.000       
     417       20.5599         0.000       
     416       20.4001         0.000       
     415       20.3406         0.000       
     414       20.2561         0.000       
     413       20.0418         0.000       
     412       19.9458         0.000       
     411       19.7115         0.000       
     410       19.6720         0.000       
     409       19.6411         0.000       
     408       19.4944         0.000       
     407       19.4030         0.000       
     406       19.2648         0.000       
     405       19.1764         0.000       
     404       19.0182         0.000       
     403       18.9519         0.000       
     402       18.8212         0.000       
     401       18.6755         0.000       
     400       18.6109         0.000       
     399       18.5288         0.000       
     398       18.3884         0.000       
     397       18.3335         0.000       
     396       18.0859         0.000       
     395       18.0157         0.000       
     394       17.9861         0.000       
     393       17.7284         0.000       
     392       17.6704         0.000       
     391       17.4132         0.000       
     390       17.3666         0.000       
     389       17.2546         0.000       
     388       17.1930         0.000       
     387       17.1707         0.000       
     386       17.0041         0.000       
     385       16.8318         0.000       
     384       16.6098         0.000       
     383       16.5461         0.000       
     382       16.4056         0.000       
     381       16.3614         0.000       
     380       16.3347         0.000       
     379       16.2212         0.000       
     378       16.0830         0.000       
     377       16.0232         0.000       
     376       15.9452         0.000       
     375       15.8906         0.000       
     374       15.8111         0.000       
     373       15.6646         0.000       
     372       15.5704         0.000       
     371       15.4344         0.000       
     370       15.3371         0.000       
     369       15.2303         0.000       
     368       15.1633         0.000       
     367       15.0308         0.000       
     366       14.9522         0.000       
     365       14.8896         0.000       
     364       14.8343         0.000       
     363       14.7700         0.000       
     362       14.6934         0.000       
     361       14.4967         0.000       
     360       14.4506         0.000       
     359       14.4302         0.000       
     358       14.3106         0.000       
     357       14.1719         0.000       
     356       14.0682         0.000       
     355       13.8920         0.000       
     354       13.8776         0.000       
     353       13.8077         0.000       
     352       13.7138         0.000       
     351       13.5745         0.000       
     350       13.4875         0.000       
     349       13.4087         0.000       
     348       13.3381         0.000       
     347       13.2816         0.000       
     346       13.1881         0.000       
     345       13.0788         0.000       
     344       12.9735         0.000       
     343       12.8268         0.000       
     342       12.7891         0.000       
     341       12.6607         0.000       
     340       12.6405         0.000       
     339       12.5336         0.000       
     338       12.4732         0.000       
     337       12.3956         0.000       
     336       12.3581         0.000       
     335       12.2651         0.000       
     334       12.2112         0.000       
     333       12.0259         0.000       
     332       11.9849         0.000       
     331       11.8924         0.000       
     330       11.8384         0.000       
     329       11.8163         0.000       
     328       11.7364         0.000       
     327       11.6392         0.000       
     326       11.4455         0.000       
     325       11.4051         0.000       
     324       11.3651         0.000       
     323       11.3491         0.000       
     322       11.3210         0.000       
     321       11.1820         0.000       
     320       11.1527         0.000       
     319       10.9983         0.000       
     318       10.9548         0.000       
     317       10.8708         0.000       
     316       10.8319         0.000       
     315       10.6834         0.000       
     314       10.6104         0.000       
     313       10.5548         0.000       
     312       10.4576         0.000       
     311       10.3702         0.000       
     310       10.3261         0.000       
     309       10.2623         0.000       
     308       10.1587         0.000       
     307       10.0959         0.000       
     306       10.0444         0.000       
     305        9.9026         0.000       
     304        9.8537         0.000       
     303        9.7912         0.000       
     302        9.6520         0.000       
     301        9.5247         0.000       
     300        9.4246         0.000       
     299        9.3470         0.000       
     298        9.2554         0.000       
     297        9.1812         0.000       
     296        9.0989         0.000       
     295        8.9789         0.000       
     294        8.9468         0.000       
     293        8.7143         0.000       
     292        8.6529         0.000       
     291        8.5929         0.000       
     290        8.5084         0.000       
     289        8.3641         0.000       
     288        8.3408         0.000       
     287        8.3207         0.000       
     286        8.1187         0.000       
     285        8.0686         0.000       
     284        8.0579         0.000       
     283        7.8555         0.000       
     282        7.6993         0.000       
     281        7.6417         0.000       
     280        7.5768         0.000       
     279        7.4394         0.000       
     278        7.3842         0.000       
     277        7.2249         0.000       
     276        7.1636         0.000       
     275        7.1047         0.000       
     274        7.0298         0.000       
     273        6.8479         0.000       
     272        6.7671         0.000       
     271        6.7512         0.000       
     270        6.6675         0.000       
     269        6.5798         0.000       
     268        6.5307         0.000       
     267        6.4638         0.000       
     266        6.3196         0.000       
     265        6.2639         0.000       
     264        6.1939         0.000       
     263        6.1082         0.000       
     262        6.0522         0.000       
     261        6.0060         0.000       
     260        5.8317         0.000       
     259        5.7491         0.000       
     258        5.7410         0.000       
     257        5.5717         0.000       
     256        5.5338         0.000       
     255        5.4652         0.000       
     254        5.3694         0.000       
     253        5.2887         0.000       
     252        5.2038         0.000       
     251        5.2019         0.000       
     250        5.1763         0.000       
     249        5.0667         0.000       
     248        4.9854         0.000       
     247        4.8989         0.000       
     246        4.8516         0.000       
     245        4.7643         0.000       
     244        4.6199         0.000       
     243        4.5304         0.000       
     242        4.4775         0.000       
     241        4.4203         0.000       
     240        4.3030         0.000       
     239        4.2491         0.000       
     238        4.0913         0.000       
     237        3.9234         0.000       
     236        3.9163         0.000       
     235        3.8873         0.000       
     234        3.8254         0.000       
     233        3.7934         0.000       
     232        3.7435         0.000       
     231        3.7167         0.000       
     230        3.5402         0.000       
     229        3.3394         0.000       
     228        3.3218         0.000       
     227        3.1893         0.000       
     226        3.1570         0.000       
     225        3.1172         0.000       
     224        2.9414         0.000       
     223        2.9071         0.000       
     222        2.8312         0.000       
     221        2.6994         0.000       
     220        2.6762         0.000       
     219        2.6220         0.000       
     218        2.5840         0.000       
     217        2.5399         0.000       
     216        2.4855         0.000       
     215        2.4065         0.000       
     214        2.3168         0.000       
     213        2.2282         0.000       
     212        2.0922         0.000       
     211        2.0671         0.000       
     210        2.0069         0.000       
     209        1.8685         0.000       
     208        1.8430         0.000       
     207        1.7413         0.000       
     206        1.6944         0.000       
     205        1.6217         0.000       
     204        1.5082         0.000       
     203        1.4098         0.000       
     202        1.2835         0.000       
     201        1.1936         0.000       
     200        1.1512         0.000       
     199        1.0328         0.000       
     198        0.9024         0.000       
     197        0.7812         0.000       
     196        0.7154         0.000       
     195        0.6599         0.000       
     194        0.5669         0.000       
     193        0.4531         0.000       
     192        0.3406         0.000       
     191        0.2905         0.000       
     190        0.1437         0.000       
     189        0.0520         0.000       
     188       -0.0850         0.000       
     187       -0.1595         0.000       
     186       -0.2981         0.000       
     185       -1.1635         0.000       
     184       -1.6834         0.000 < LUMO
     183       -6.0574         2.000 < HOMO
     182       -6.3466         2.000       
     181       -6.7957         2.000       
     180       -6.9589         2.000       
     179       -7.5673         2.000       
     178       -7.6387         2.000       
     177       -7.8532         2.000       
     176       -8.0335         2.000       
     175       -8.2508         2.000       
     174       -8.4402         2.000       
     173       -8.5012         2.000       
     172       -8.6259         2.000       
     171       -8.6924         2.000       
     170       -8.8616         2.000       
     169       -8.9484         2.000       
     168       -9.1284         2.000       
     167       -9.2819         2.000       
     166       -9.4145         2.000       
     165       -9.4406         2.000       
     164       -9.4711         2.000       
     163       -9.5742         2.000       
     162       -9.5928         2.000       
     161       -9.7283         2.000       
     160       -9.9656         2.000       
     159      -10.0754         2.000       
     158      -10.1409         2.000       
     157      -10.1997         2.000       
     156      -10.2817         2.000       
     155      -10.4526         2.000       
     154      -10.5495         2.000       
     153      -10.6099         2.000       
     152      -10.7316         2.000       
     151      -10.7623         2.000       
     150      -10.8973         2.000       
     149      -11.0948         2.000       
     148      -11.1465         2.000       
     147      -11.2075         2.000       
     146      -11.2858         2.000       
     145      -11.3351         2.000       
     144      -11.4076         2.000       
     143      -11.5688         2.000       
     142      -11.6043         2.000       
     141      -11.7008         2.000       
     140      -11.7469         2.000       
     139      -11.7809         2.000       
     138      -12.0396         2.000       
     137      -12.1350         2.000       
     136      -12.2384         2.000       
     135      -12.3617         2.000       
     134      -12.4942         2.000       
     133      -12.6481         2.000       
     132      -12.6735         2.000       
     131      -12.7891         2.000       
     130      -12.8371         2.000       
     129      -12.9123         2.000       
     128      -12.9609         2.000       
     127      -12.9885         2.000       
     126      -13.1284         2.000       
     125      -13.2191         2.000       
     124      -13.2369         2.000       
     123      -13.3587         2.000       
     122      -13.4183         2.000       
     121      -13.4433         2.000       
     120      -13.5139         2.000       
     119      -13.6021         2.000       
     118      -13.7178         2.000       
     117      -13.7549         2.000       
     116      -13.8400         2.000       
     115      -14.1953         2.000       
     114      -14.2589         2.000       
     113      -14.4753         2.000       
     112      -14.8149         2.000       
     111      -14.9796         2.000       
     110      -15.1520         2.000       
     109      -15.3243         2.000       
     108      -15.6101         2.000       
     107      -16.0500         2.000       
     106      -16.1493         2.000       
     105      -16.2239         2.000       
     104      -16.3211         2.000       
     103      -16.8397         2.000       
     102      -16.9723         2.000       
     101      -17.3114         2.000       
     100      -17.3842         2.000       
      99      -17.7413         2.000       
      98      -18.4946         2.000       
      97      -18.5833         2.000       
      96      -19.0131         2.000       
      95      -19.6812         2.000       
      94      -19.7437         2.000       
      93      -19.9646         2.000       
      92      -19.9829         2.000       
      91      -20.0862         2.000       
      90      -20.2312         2.000       
      89      -20.9610         2.000       
      88      -21.2996         2.000       
      87      -21.3803         2.000       
      86      -21.5301         2.000       
      85      -21.7177         2.000       
      84      -22.3939         2.000       
      83      -23.4796         2.000       
      82      -23.8667         2.000       
      81      -24.1720         2.000       
      80      -24.3414         2.000       
      79      -24.3736         2.000       
      78      -24.5104         2.000       
      77      -25.9953         2.000       
      76      -27.6949         2.000       
      75      -30.3588         2.000       
      74      -30.7003         2.000       
      73      -34.5762         2.000       
      72      -34.7664         2.000       
      71      -35.0444         2.000       
      70      -35.2914         2.000       
      69      -57.9578         2.000       
      68      -58.7569         2.000       
      67      -58.9235         2.000       
      66      -93.9515         2.000       
      65     -129.8830         2.000       
      64     -129.9491         2.000       
      63     -129.9594         2.000       
      62     -165.4540         2.000       
      61     -165.4615         2.000       
      60     -165.4889         2.000       
      59     -181.7421         2.000       
      58     -197.3565         2.000       
      57     -197.3723         2.000       
      56     -197.6412         2.000       
      55     -223.0127         2.000       
      54     -261.0013         2.000       
      53     -278.5308         2.000       
      52     -278.6332         2.000       
      51     -278.6701         2.000       
      50     -278.6729         2.000       
      49     -278.6921         2.000       
      48     -278.7012         2.000       
      47     -278.7645         2.000       
      46     -278.7909         2.000       
      45     -278.8557         2.000       
      44     -278.8572         2.000       
      43     -278.8941         2.000       
      42     -278.9028         2.000       
      41     -279.0094         2.000       
      40     -279.0823         2.000       
      39     -279.1770         2.000       
      38     -279.2702         2.000       
      37     -279.3307         2.000       
      36     -279.5160         2.000       
      35     -279.8882         2.000       
      34     -279.9200         2.000       
      33     -280.0017         2.000       
      32     -280.0769         2.000       
      31     -280.2687         2.000       
      30     -280.4881         2.000       
      29     -280.9868         2.000       
      28     -281.1667         2.000       
      27     -281.2031         2.000       
      26     -281.2352         2.000       
      25     -338.2098         2.000       
      24     -338.2496         2.000       
      23     -338.3194         2.000       
      22     -338.4942         2.000       
      21     -338.5009         2.000       
      20     -391.8599         2.000       
      19     -522.4431         2.000       
      18     -522.4624         2.000       
      17     -524.1405         2.000       
      16     -532.0130         2.000       
      15     -532.3370         2.000       
      14     -532.4344         2.000       
      13     -654.0980         2.000       
      12     -675.0212         2.000       
      11     -675.3787         2.000       
      10     -675.4101         2.000       
       9     -675.4200         2.000       
       8    -2107.8039         2.000       
       7    -2434.8069         2.000       
       6    -2777.2258         2.000       
       5    -3190.2050         2.000       
       4    -3190.3445         2.000       
       3    -3190.3754         2.000       
       2    -3561.2599         2.000       
       1   -24224.4047         2.000       

AMS application finished. Exiting.
NORMAL TERMINATION
     Total cpu time:    2719.61
  Total system time:      31.59
 Total elapsed time:    2768.92
NORMAL TERMINATION
