

 Parallel Execution: Process Information
 ==============================================================================
 Rank   Node Name                              NodeID   MyNodeRank  NodeMaster
    0   eu-g5-010-4                               0          0          0
    1   eu-g5-010-4                               1          0          1
    2   eu-g5-010-4                               0          1         -1
    3   eu-g5-010-4                               1          1         -1
    4   eu-g5-010-4                               0          2         -1
    5   eu-g5-010-4                               1          2         -1
    6   eu-g5-010-4                               0          3         -1
    7   eu-g5-010-4                               1          3         -1
    8   eu-g5-010-4                               0          4         -1
    9   eu-g5-010-4                               1          4         -1
   10   eu-g5-010-4                               0          5         -1
   11   eu-g5-010-4                               1          5         -1
   12   eu-g5-010-4                               0          6         -1
   13   eu-g5-010-4                               1          6         -1
   14   eu-g5-010-4                               0          7         -1
   15   eu-g5-010-4                               1          7         -1
 ==============================================================================


May use up to 30549MB of RAM as shared memory on node 0
May use up to 30759MB of RAM as shared memory on node 1

 *******************************************************************************
 *                                                                             *
 *  --------------------------------                                           *
 *   Amsterdam Modeling Suite (AMS)              2023.101                      *
 *  --------------------------------                                           *
 *                                               r111868 2023-03-31            *
 *                                                                             *
 *                                                                             *
 *                              =================                              *
 *                              |               |                              *
 *                              |     A M S     |                              *
 *                              |               |                              *
 *                              =================                              *
 *                                                                             *
 *                                                                             *
 *   Online information and documentation:  https://www.scm.com/support/       *
 *   E-mail:  support@scm.com   info@scm.com                                   *
 *                                                                             *
 *   Scientific publications using AMS results must be properly referenced     *
 *   See the User Manuals (or the web site) for recommended citations          *
 *   The terms and conditions of the End User License Agreement apply to       *
 *   the use of AMS, https://www.scm.com/license-terms/                        *
 *                                                                             *
 ***********************  x86_64_linux_intel / openmpi  ************************
 
 Licensed to: D-CHAB / ETH site license / Zurich / Switzerland 2023-06-23 15:55:12
 SCM User ID: u7035
  
 AMS 2023.101  RunTime: May25-2024 09:19:27  ShM Nodes: 2  Procs: 16

 AMS jobname: ts_biphep
 AMS jobid  : 267037594

 Start   directory: /cluster/scratch/sroediger/michael/eda/
 Results directory: /cluster/scratch/sroediger/michael/eda/ts_biphep.results/
 Scratch directory: /scratch/amstmp_ts_biphep_kid0.267037594/


 Communication costs MPI_COMM_WORLD:      8.494 usec per message,   0.0233 usec per 8-byte item
 Communication costs for intra-node:      3.687 usec per message,   0.0157 usec per 8-byte item

 RNG seed: 1184420499 -1626203767 569630593 -618409861 -416607141 907888169 1520097807 -275931143



                     *************************************************************************
                     *  ADF 2023.101  RunTime: May25-2024 09:19:28  ShM Nodes: 2  Procs: 16  *
                     *************************************************************************
  

       ****************************
       * SINGLE POINT CALCULATION *
       ****************************
 
--------
Geometry
--------
Formula: C50H36ClF4NO3P2PdS
Atoms
  Index Symbol   x (angstrom)   y (angstrom)   z (angstrom)
      1      C    -1.95493200     0.27856600    -0.96511900       region=pdsubstrate adf.f=pdsubstrate
      2      C    -2.22405900     0.81986000    -2.24371000       region=pdsubstrate adf.f=pdsubstrate
      3      H    -1.60564200     0.54449700    -3.10045300       region=pdsubstrate adf.f=pdsubstrate
      4      C    -3.22113800     1.77171600    -2.37335500       region=pdsubstrate adf.f=pdsubstrate
      5      H    -3.39048600     2.26915300    -3.33023200       region=pdsubstrate adf.f=pdsubstrate
      6      C    -4.01595600     2.16406800    -1.27903600       region=pdsubstrate adf.f=pdsubstrate
      7      C    -3.87403800     1.51048700    -0.05785600       region=pdsubstrate adf.f=pdsubstrate
      8      H    -4.53992100     1.71015600     0.78060100       region=pdsubstrate adf.f=pdsubstrate
      9      C    -2.88188700     0.52845500     0.08463900       region=pdsubstrate adf.f=pdsubstrate
     10      C    -2.74898300    -0.45100400     1.13617900       region=pdsubstrate adf.f=pdsubstrate
     11      C    -3.17072000    -0.39795500     2.46370900       region=pdsubstrate adf.f=pdsubstrate
     12      C    -2.82517900    -1.40936800     3.34998800       region=pdsubstrate adf.f=pdsubstrate
     13      C    -2.06672600    -2.50048600     2.91309200       region=pdsubstrate adf.f=pdsubstrate
     14      C    -1.65242900    -2.58994000     1.58632000       region=pdsubstrate adf.f=pdsubstrate
     15      C    -2.01069800    -1.58121400     0.68943600       region=pdsubstrate adf.f=pdsubstrate
     16      N    -1.55690400    -1.46875400    -0.63412100       region=pdsubstrate adf.f=pdsubstrate
     17      S    -1.98587100    -2.58101200    -1.80752900       region=pdsubstrate adf.f=pdsubstrate
     18      O    -1.24342400    -2.19506500    -2.99910200       region=pdsubstrate adf.f=pdsubstrate
     19      O    -1.93124700    -3.93625000    -1.28792000       region=pdsubstrate adf.f=pdsubstrate
     20      C    -3.73160400    -2.17171300    -2.04861700       region=pdsubstrate adf.f=pdsubstrate
     21     Cl    -4.46570100    -3.24374700    -3.23366000       region=pdsubstrate adf.f=pdsubstrate
     22      H    -3.78850300    -1.12853100    -2.38637100       region=pdsubstrate adf.f=pdsubstrate
     23      H    -4.22190300    -2.29495800    -1.07339100       region=pdsubstrate adf.f=pdsubstrate
     24      F    -0.85010100    -3.58141100     1.24532600       region=pdsubstrate adf.f=pdsubstrate
     25      F    -1.68544400    -3.41815000     3.78861100       region=pdsubstrate adf.f=pdsubstrate
     26      F    -3.15189800    -1.31589400     4.63154900       region=pdsubstrate adf.f=pdsubstrate
     27      F    -3.82865100     0.66081700     2.92846700       region=pdsubstrate adf.f=pdsubstrate
     28      O    -4.90206700     3.16285800    -1.51828500       region=pdsubstrate adf.f=pdsubstrate
     29      C    -5.71170600     3.58767900    -0.46365500       region=pdsubstrate adf.f=pdsubstrate
     30      H    -5.11431600     3.94760200     0.39450100       region=pdsubstrate adf.f=pdsubstrate
     31      H    -6.38404200     2.78632200    -0.10630600       region=pdsubstrate adf.f=pdsubstrate
     32      H    -6.32360200     4.41606200    -0.84393500       region=pdsubstrate adf.f=pdsubstrate
     33      P     2.17755800    -1.15452500    -0.40416500       region=ligand adf.f=ligand
     34      C     3.68673600    -0.64789200    -1.30722000       region=ligand adf.f=ligand
     35      C     4.96040100    -1.11555200    -0.96379200       region=ligand adf.f=ligand
     36      C     6.07630200    -0.69796000    -1.68209700       region=ligand adf.f=ligand
     37      C     5.92989400     0.18842700    -2.75032200       region=ligand adf.f=ligand
     38      C     4.66378900     0.64991300    -3.10289000       region=ligand adf.f=ligand
     39      C     3.54511400     0.22806100    -2.38664600       region=ligand adf.f=ligand
     40      H     2.54607900     0.58460900    -2.65218600       region=ligand adf.f=ligand
     41      H     4.54443700     1.34260100    -3.93906000       region=ligand adf.f=ligand
     42      H     6.80784500     0.51712600    -3.31171800       region=ligand adf.f=ligand
     43      H     7.06792000    -1.06620900    -1.40802200       region=ligand adf.f=ligand
     44      H     5.08272900    -1.80712600    -0.12779700       region=ligand adf.f=ligand
     45      C     2.44584900    -0.65615000     1.34051300       region=ligand adf.f=ligand
     46      C     1.93006600    -1.48136300     2.35288200       region=ligand adf.f=ligand
     47      C     1.97490300    -1.09576300     3.68818200       region=ligand adf.f=ligand
     48      C     2.54557600     0.12654500     4.03759900       region=ligand adf.f=ligand
     49      C     3.02671400     0.96737500     3.04067800       region=ligand adf.f=ligand
     50      C     2.95875500     0.61258300     1.68593600       region=ligand adf.f=ligand
     51      C     3.40953800     1.63670700     0.69540700       region=ligand adf.f=ligand
     52      C     4.77628500     1.91320200     0.59353200       region=ligand adf.f=ligand
     53      C     5.25392100     2.90464800    -0.25835200       region=ligand adf.f=ligand
     54      C     4.35541200     3.66562800    -1.00000200       region=ligand adf.f=ligand
     55      C     2.98899600     3.41812000    -0.89905200       region=ligand adf.f=ligand
     56      C     2.49964400     2.40158200    -0.07138200       region=ligand adf.f=ligand
     57      P     0.71340500     1.97798300    -0.01257100       region=ligand adf.f=ligand
     58      C    -0.14548800     3.25706800    -0.98692600       region=ligand adf.f=ligand
     59      C    -1.12678700     4.08727600    -0.43513700       region=ligand adf.f=ligand
     60      C    -1.86802200     4.93829400    -1.25348800       region=ligand adf.f=ligand
     61      C    -1.63226900     4.97800900    -2.62515000       region=ligand adf.f=ligand
     62      C    -0.66292900     4.14550900    -3.18505300       region=ligand adf.f=ligand
     63      C     0.06030400     3.27607200    -2.37523600       region=ligand adf.f=ligand
     64      H     0.78260200     2.59019600    -2.82699000       region=ligand adf.f=ligand
     65      H    -0.48600600     4.15574200    -4.26314800       region=ligand adf.f=ligand
     66      H    -2.21707500     5.64503300    -3.26253800       region=ligand adf.f=ligand
     67      H    -2.64277800     5.56998500    -0.81323400       region=ligand adf.f=ligand
     68      H    -1.32724700     4.05576100     0.63727900       region=ligand adf.f=ligand
     69      C     0.29949400     2.33618800     1.73021200       region=ligand adf.f=ligand
     70      C    -0.35050900     1.36359300     2.49081800       region=ligand adf.f=ligand
     71      C    -0.66120700     1.60408900     3.82799300       region=ligand adf.f=ligand
     72      C    -0.30497400     2.81568700     4.41469900       region=ligand adf.f=ligand
     73      C     0.36612600     3.78537600     3.66557600       region=ligand adf.f=ligand
     74      C     0.66733600     3.54951200     2.32742800       region=ligand adf.f=ligand
     75      H     1.19837500     4.30603400     1.74332100       region=ligand adf.f=ligand
     76      C     1.42822100    -3.64838900    -1.28388800       region=ligand adf.f=ligand
     77      C     1.42838800    -5.04056100    -1.34393900       region=ligand adf.f=ligand
     78      C     2.27880600    -5.77196000    -0.51950300       region=ligand adf.f=ligand
     79      C     3.13069500    -5.11024200     0.36728200       region=ligand adf.f=ligand
     80      C     3.12806200    -3.72035900     0.43409000       region=ligand adf.f=ligand
     81      C     2.27217100    -2.97814500    -0.39270500       region=ligand adf.f=ligand
     82      H     3.77779900    -3.21410700     1.15205400       region=ligand adf.f=ligand
     83      H     3.79531500    -5.68285800     1.01883200       region=ligand adf.f=ligand
     84      H     2.27332800    -6.86400100    -0.55756100       region=ligand adf.f=ligand
     85      H     0.73894400    -5.54540200    -2.02334000       region=ligand adf.f=ligand
     86      H     0.75645300    -3.07859900    -1.92956200       region=ligand adf.f=ligand
     87      H     0.65531400     4.73176500     4.12905500       region=ligand adf.f=ligand
     88      H    -0.54425400     3.00617700     5.46372700       region=ligand adf.f=ligand
     89      H    -1.18263500     0.84039500     4.40959000       region=ligand adf.f=ligand
     90      H    -0.58512800     0.40309900     2.02986000       region=ligand adf.f=ligand
     91      H     2.29040000     4.03031000    -1.47184800       region=ligand adf.f=ligand
     92      H     4.71485100     4.45950300    -1.65883200       region=ligand adf.f=ligand
     93      H     6.32841600     3.08398900    -0.33675100       region=ligand adf.f=ligand
     94      H     5.47392100     1.31818300     1.18709500       region=ligand adf.f=ligand
     95      H     3.43180800     1.94780400     3.30151200       region=ligand adf.f=ligand
     96      H     2.59129800     0.43895100     5.08298700       region=ligand adf.f=ligand
     97      H     1.55887300    -1.75479900     4.45391200       region=ligand adf.f=ligand
     98      H     1.47646500    -2.43868400     2.08649200       region=ligand adf.f=ligand
     99     Pd     0.05374600    -0.11918900    -0.71174900       region=pdsubstrate adf.f=pdsubstrate
 
Total System Charge             0.00000
Bonding info available!
 
 
----------------
ADF Engine Input
----------------
 
 Basis
 Type TZP
 Core None
 End
 Fragments
 ligand ./ts_biphep.ligand.results/adf.rkf
 pdsubstrate ./ts_biphep.pdsubstrate.results/adf.rkf
 End
 XC
 Hybrid PBE0
 DISPERSION Grimme3 BJDAMP
 End
 NumericalQuality VeryGood
 

 Title: *** (NO TITLE) ***

 *** adf ***



 ===========================
 A T T A C H E D   F I L E S
 ===========================
  



 ===============================
 M O D E L   P A R A M E T E R S
 ===============================
  
 DENSITY FUNCTIONAL POTENTIAL (scf)
    Hybrid:                            PBE0                                    == Not Default ==

 SPIN  (restricted / unrestr.)
    Molecule:                          Restricted                               
    Fragments:                         Restricted                               

 OTHER ASPECTS
    Relativistic Corrections:          scalar (ZORA,MAPA)                       

    Nuclear Charge Density Model:      Point Charge Nuclei                      
    Core Treatment:                    Frozen Orbital(s)                        

    Hyperfine or Zeeman Interaction:   ---                                      

 Settings for Grimme D3 dispersion correction

      damping                        BJ
      s6                          1.000
      s8                          1.218
      a1                          0.414
      a2                          4.859

 Other (technical) parameters

      alpha                      14.000
      version                         4
 


 Fragment File(s)
 ----------------
 pdsubstrate:
         file : ./ts_biphep.pdsubstrate.results/adf.rkf
         jobid: 2139358717
         title: *** adf ***
 ligand:
         file : ./ts_biphep.ligand.results/adf.rkf
         jobid: 528421358
         title: *** adf ***



 ===============
 G E O M E T R Y  ***  3D  Molecule  ***
 ===============
  

 ATOMS
 =====                            X Y Z                    CHARGE
                                (Angstrom)             Nucl     +Core       At.Mass
                       --------------------------    ----------------       -------
    1  C              -1.9549    0.2786   -0.9651      6.00      6.00       12.0000
    2  C              -2.2241    0.8199   -2.2437      6.00      6.00       12.0000
    3  H              -1.6056    0.5445   -3.1005      1.00      1.00        1.0078
    4  C              -3.2211    1.7717   -2.3734      6.00      6.00       12.0000
    5  H              -3.3905    2.2692   -3.3302      1.00      1.00        1.0078
    6  C              -4.0160    2.1641   -1.2790      6.00      6.00       12.0000
    7  C              -3.8740    1.5105   -0.0579      6.00      6.00       12.0000
    8  H              -4.5399    1.7102    0.7806      1.00      1.00        1.0078
    9  C              -2.8819    0.5285    0.0846      6.00      6.00       12.0000
   10  C              -2.7490   -0.4510    1.1362      6.00      6.00       12.0000
   11  C              -3.1707   -0.3980    2.4637      6.00      6.00       12.0000
   12  C              -2.8252   -1.4094    3.3500      6.00      6.00       12.0000
   13  C              -2.0667   -2.5005    2.9131      6.00      6.00       12.0000
   14  C              -1.6524   -2.5899    1.5863      6.00      6.00       12.0000
   15  C              -2.0107   -1.5812    0.6894      6.00      6.00       12.0000
   16  N              -1.5569   -1.4688   -0.6341      7.00      7.00       14.0031
   17  S              -1.9859   -2.5810   -1.8075     16.00     16.00       31.9721
   18  O              -1.2434   -2.1951   -2.9991      8.00      8.00       15.9949
   19  O              -1.9312   -3.9362   -1.2879      8.00      8.00       15.9949
   20  C              -3.7316   -2.1717   -2.0486      6.00      6.00       12.0000
   21  Cl             -4.4657   -3.2437   -3.2337     17.00     17.00       34.9689
   22  H              -3.7885   -1.1285   -2.3864      1.00      1.00        1.0078
   23  H              -4.2219   -2.2950   -1.0734      1.00      1.00        1.0078
   24  F              -0.8501   -3.5814    1.2453      9.00      9.00       18.9984
   25  F              -1.6854   -3.4181    3.7886      9.00      9.00       18.9984
   26  F              -3.1519   -1.3159    4.6315      9.00      9.00       18.9984
   27  F              -3.8287    0.6608    2.9285      9.00      9.00       18.9984
   28  O              -4.9021    3.1629   -1.5183      8.00      8.00       15.9949
   29  C              -5.7117    3.5877   -0.4637      6.00      6.00       12.0000
   30  H              -5.1143    3.9476    0.3945      1.00      1.00        1.0078
   31  H              -6.3840    2.7863   -0.1063      1.00      1.00        1.0078
   32  H              -6.3236    4.4161   -0.8439      1.00      1.00        1.0078
   33  P               2.1776   -1.1545   -0.4042     15.00     15.00       30.9738
   34  C               3.6867   -0.6479   -1.3072      6.00      6.00       12.0000
   35  C               4.9604   -1.1156   -0.9638      6.00      6.00       12.0000
   36  C               6.0763   -0.6980   -1.6821      6.00      6.00       12.0000
   37  C               5.9299    0.1884   -2.7503      6.00      6.00       12.0000
   38  C               4.6638    0.6499   -3.1029      6.00      6.00       12.0000
   39  C               3.5451    0.2281   -2.3866      6.00      6.00       12.0000
   40  H               2.5461    0.5846   -2.6522      1.00      1.00        1.0078
   41  H               4.5444    1.3426   -3.9391      1.00      1.00        1.0078
   42  H               6.8078    0.5171   -3.3117      1.00      1.00        1.0078
   43  H               7.0679   -1.0662   -1.4080      1.00      1.00        1.0078
   44  H               5.0827   -1.8071   -0.1278      1.00      1.00        1.0078
   45  C               2.4458   -0.6562    1.3405      6.00      6.00       12.0000
   46  C               1.9301   -1.4814    2.3529      6.00      6.00       12.0000
   47  C               1.9749   -1.0958    3.6882      6.00      6.00       12.0000
   48  C               2.5456    0.1265    4.0376      6.00      6.00       12.0000
   49  C               3.0267    0.9674    3.0407      6.00      6.00       12.0000
   50  C               2.9588    0.6126    1.6859      6.00      6.00       12.0000
   51  C               3.4095    1.6367    0.6954      6.00      6.00       12.0000
   52  C               4.7763    1.9132    0.5935      6.00      6.00       12.0000
   53  C               5.2539    2.9046   -0.2584      6.00      6.00       12.0000
   54  C               4.3554    3.6656   -1.0000      6.00      6.00       12.0000
   55  C               2.9890    3.4181   -0.8991      6.00      6.00       12.0000
   56  C               2.4996    2.4016   -0.0714      6.00      6.00       12.0000
   57  P               0.7134    1.9780   -0.0126     15.00     15.00       30.9738
   58  C              -0.1455    3.2571   -0.9869      6.00      6.00       12.0000
   59  C              -1.1268    4.0873   -0.4351      6.00      6.00       12.0000
   60  C              -1.8680    4.9383   -1.2535      6.00      6.00       12.0000
   61  C              -1.6323    4.9780   -2.6252      6.00      6.00       12.0000
   62  C              -0.6629    4.1455   -3.1851      6.00      6.00       12.0000
   63  C               0.0603    3.2761   -2.3752      6.00      6.00       12.0000
   64  H               0.7826    2.5902   -2.8270      1.00      1.00        1.0078
   65  H              -0.4860    4.1557   -4.2631      1.00      1.00        1.0078
   66  H              -2.2171    5.6450   -3.2625      1.00      1.00        1.0078
   67  H              -2.6428    5.5700   -0.8132      1.00      1.00        1.0078
   68  H              -1.3272    4.0558    0.6373      1.00      1.00        1.0078
   69  C               0.2995    2.3362    1.7302      6.00      6.00       12.0000
   70  C              -0.3505    1.3636    2.4908      6.00      6.00       12.0000
   71  C              -0.6612    1.6041    3.8280      6.00      6.00       12.0000
   72  C              -0.3050    2.8157    4.4147      6.00      6.00       12.0000
   73  C               0.3661    3.7854    3.6656      6.00      6.00       12.0000
   74  C               0.6673    3.5495    2.3274      6.00      6.00       12.0000
   75  H               1.1984    4.3060    1.7433      1.00      1.00        1.0078
   76  C               1.4282   -3.6484   -1.2839      6.00      6.00       12.0000
   77  C               1.4284   -5.0406   -1.3439      6.00      6.00       12.0000
   78  C               2.2788   -5.7720   -0.5195      6.00      6.00       12.0000
   79  C               3.1307   -5.1102    0.3673      6.00      6.00       12.0000
   80  C               3.1281   -3.7204    0.4341      6.00      6.00       12.0000
   81  C               2.2722   -2.9781   -0.3927      6.00      6.00       12.0000
   82  H               3.7778   -3.2141    1.1521      1.00      1.00        1.0078
   83  H               3.7953   -5.6829    1.0188      1.00      1.00        1.0078
   84  H               2.2733   -6.8640   -0.5576      1.00      1.00        1.0078
   85  H               0.7389   -5.5454   -2.0233      1.00      1.00        1.0078
   86  H               0.7565   -3.0786   -1.9296      1.00      1.00        1.0078
   87  H               0.6553    4.7318    4.1291      1.00      1.00        1.0078
   88  H              -0.5443    3.0062    5.4637      1.00      1.00        1.0078
   89  H              -1.1826    0.8404    4.4096      1.00      1.00        1.0078
   90  H              -0.5851    0.4031    2.0299      1.00      1.00        1.0078
   91  H               2.2904    4.0303   -1.4718      1.00      1.00        1.0078
   92  H               4.7149    4.4595   -1.6588      1.00      1.00        1.0078
   93  H               6.3284    3.0840   -0.3368      1.00      1.00        1.0078
   94  H               5.4739    1.3182    1.1871      1.00      1.00        1.0078
   95  H               3.4318    1.9478    3.3015      1.00      1.00        1.0078
   96  H               2.5913    0.4390    5.0830      1.00      1.00        1.0078
   97  H               1.5589   -1.7548    4.4539      1.00      1.00        1.0078
   98  H               1.4765   -2.4387    2.0865      1.00      1.00        1.0078
   99  Pd              0.0537   -0.1192   -0.7117     46.00     46.00      105.9035


 FRAGMENTS
 =========                                     Atoms in this Fragment     Cart. coord.s (Angstrom)
                                               -------------------------------------------------------
    1  pdsubstrate                                       1  C           -1.9549    0.2786   -0.9651
                                                         2  C           -2.2241    0.8199   -2.2437
                                                         4  C           -3.2211    1.7717   -2.3734
                                                         6  C           -4.0160    2.1641   -1.2790
                                                         7  C           -3.8740    1.5105   -0.0579
                                                         9  C           -2.8819    0.5285    0.0846
                                                        10  C           -2.7490   -0.4510    1.1362
                                                        11  C           -3.1707   -0.3980    2.4637
                                                        12  C           -2.8252   -1.4094    3.3500
                                                        13  C           -2.0667   -2.5005    2.9131
                                                        14  C           -1.6524   -2.5899    1.5863
                                                        15  C           -2.0107   -1.5812    0.6894
                                                        20  C           -3.7316   -2.1717   -2.0486
                                                        29  C           -5.7117    3.5877   -0.4637
                                                         3  H           -1.6056    0.5445   -3.1005
                                                         5  H           -3.3905    2.2692   -3.3302
                                                         8  H           -4.5399    1.7102    0.7806
                                                        22  H           -3.7885   -1.1285   -2.3864
                                                        23  H           -4.2219   -2.2950   -1.0734
                                                        30  H           -5.1143    3.9476    0.3945
                                                        31  H           -6.3840    2.7863   -0.1063
                                                        32  H           -6.3236    4.4161   -0.8439
                                                        16  N           -1.5569   -1.4688   -0.6341
                                                        17  S           -1.9859   -2.5810   -1.8075
                                                        18  O           -1.2434   -2.1951   -2.9991
                                                        19  O           -1.9312   -3.9362   -1.2879
                                                        28  O           -4.9021    3.1629   -1.5183
                                                        21  Cl          -4.4657   -3.2437   -3.2337
                                                        24  F           -0.8501   -3.5814    1.2453
                                                        25  F           -1.6854   -3.4181    3.7886
                                                        26  F           -3.1519   -1.3159    4.6315
                                                        27  F           -3.8287    0.6608    2.9285
                                                        99  Pd           0.0537   -0.1192   -0.7117
    2  ligand                                           67  H           -2.6428    5.5700   -0.8132
                                                        68  H           -1.3272    4.0558    0.6373
                                                        75  H            1.1984    4.3060    1.7433
                                                        82  H            3.7778   -3.2141    1.1521
                                                        83  H            3.7953   -5.6829    1.0188
                                                        84  H            2.2733   -6.8640   -0.5576
                                                        85  H            0.7389   -5.5454   -2.0233
                                                        86  H            0.7565   -3.0786   -1.9296
                                                        87  H            0.6553    4.7318    4.1291
                                                        88  H           -0.5443    3.0062    5.4637
                                                        89  H           -1.1826    0.8404    4.4096
                                                        90  H           -0.5851    0.4031    2.0299
                                                        91  H            2.2904    4.0303   -1.4718
                                                        92  H            4.7149    4.4595   -1.6588
                                                        93  H            6.3284    3.0840   -0.3368
                                                        94  H            5.4739    1.3182    1.1871
                                                        95  H            3.4318    1.9478    3.3015
                                                        96  H            2.5913    0.4390    5.0830
                                                        97  H            1.5589   -1.7548    4.4539
                                                        98  H            1.4765   -2.4387    2.0865
                                                        40  H            2.5461    0.5846   -2.6522
                                                        41  H            4.5444    1.3426   -3.9391
                                                        42  H            6.8078    0.5171   -3.3117
                                                        43  H            7.0679   -1.0662   -1.4080
                                                        44  H            5.0827   -1.8071   -0.1278
                                                        64  H            0.7826    2.5902   -2.8270
                                                        65  H           -0.4860    4.1557   -4.2631
                                                        66  H           -2.2171    5.6450   -3.2625
                                                        69  C            0.2995    2.3362    1.7302
                                                        70  C           -0.3505    1.3636    2.4908
                                                        71  C           -0.6612    1.6041    3.8280
                                                        72  C           -0.3050    2.8157    4.4147
                                                        73  C            0.3661    3.7854    3.6656
                                                        74  C            0.6673    3.5495    2.3274
                                                        76  C            1.4282   -3.6484   -1.2839
                                                        77  C            1.4284   -5.0406   -1.3439
                                                        78  C            2.2788   -5.7720   -0.5195
                                                        79  C            3.1307   -5.1102    0.3673
                                                        80  C            3.1281   -3.7204    0.4341
                                                        81  C            2.2722   -2.9781   -0.3927
                                                        34  C            3.6867   -0.6479   -1.3072
                                                        35  C            4.9604   -1.1156   -0.9638
                                                        36  C            6.0763   -0.6980   -1.6821
                                                        37  C            5.9299    0.1884   -2.7503
                                                        38  C            4.6638    0.6499   -3.1029
                                                        39  C            3.5451    0.2281   -2.3866
                                                        45  C            2.4458   -0.6562    1.3405
                                                        46  C            1.9301   -1.4814    2.3529
                                                        47  C            1.9749   -1.0958    3.6882
                                                        48  C            2.5456    0.1265    4.0376
                                                        49  C            3.0267    0.9674    3.0407
                                                        50  C            2.9588    0.6126    1.6859
                                                        51  C            3.4095    1.6367    0.6954
                                                        52  C            4.7763    1.9132    0.5935
                                                        53  C            5.2539    2.9046   -0.2584
                                                        54  C            4.3554    3.6656   -1.0000
                                                        55  C            2.9890    3.4181   -0.8991
                                                        56  C            2.4996    2.4016   -0.0714
                                                        58  C           -0.1455    3.2571   -0.9869
                                                        59  C           -1.1268    4.0873   -0.4351
                                                        60  C           -1.8680    4.9383   -1.2535
                                                        61  C           -1.6323    4.9780   -2.6252
                                                        62  C           -0.6629    4.1455   -3.1851
                                                        63  C            0.0603    3.2761   -2.3752
                                                        33  P            2.1776   -1.1545   -0.4042
                                                        57  P            0.7134    1.9780   -0.0126



 =====================================
 S Y M M E T R Y ,   E L E C T R O N S
 =====================================
  
 Symmetry: NOSYM

 Irreducible Representations, including subspecies
 -------------------------------------------------
 A


 Configuration of Valence Electrons
 ==================================
 ( determined in the SCF procedure )

 Total:   512

 Net Charge: 0 (Nuclei minus Electrons)

 Aufbau principle for MO occupations will be applied through SCF cycle no.     150
 Thereafter, the program will assign electrons to MOs that are spatially
 similar to the occupied MOs in a "reference" cycle ("KeepOrbitals").
 The reference cycle is always the PREVIOUS cycle: it will evolve with
 the SCF procedure.
1
 ***************************************************************************************************



                                      ****************************************
                                      *  B U I L D : (Fragments, Functions)  *
                                      ****************************************
  

 The individual fragments are copies of the corresponding 'Master' fragments defined on the fragment files.
 However, they may have been rotated (and translated) with respect to the Master. The local coordinate axes
 of each fragment (which define for instance the spatial orientation in the current molecule of a fragment
 P:x orbital) are not necessarily those of the molecule.
 The local frame (if different from the molecular one) is printed to enable an interpretation of the expan-
 sion of an MO in Fragment Orbitals.



                                         *********************************
                                         *  Fragment Type : pdsubstrate  *
                                         *********************************
  

 Fragment no.    1   (in the list of all fragments)
 -----------------
 The local coordinate frame is identical to the molecular frame.

 Check Atomic Coordinates:

                  Master (on file)          After Computed Tranformation               As specified on Input
           ----------------------------     ----------------------------     ---------------------------------
     1)    -1.95493   0.27857  -0.96512     -1.95493   0.27857  -0.96512       1  -1.95493   0.27857  -0.96512
     2)    -2.22406   0.81986  -2.24371     -2.22406   0.81986  -2.24371       2  -2.22406   0.81986  -2.24371
     3)    -3.22114   1.77172  -2.37336     -3.22114   1.77172  -2.37336       4  -3.22114   1.77172  -2.37336
     4)    -4.01596   2.16407  -1.27904     -4.01596   2.16407  -1.27904       6  -4.01596   2.16407  -1.27904
     5)    -3.87404   1.51049  -0.05786     -3.87404   1.51049  -0.05786       7  -3.87404   1.51049  -0.05786
     6)    -2.88189   0.52846   0.08464     -2.88189   0.52846   0.08464       9  -2.88189   0.52846   0.08464
     7)    -2.74898  -0.45100   1.13618     -2.74898  -0.45100   1.13618      10  -2.74898  -0.45100   1.13618
     8)    -3.17072  -0.39796   2.46371     -3.17072  -0.39796   2.46371      11  -3.17072  -0.39796   2.46371
     9)    -2.82518  -1.40937   3.34999     -2.82518  -1.40937   3.34999      12  -2.82518  -1.40937   3.34999
    10)    -2.06673  -2.50049   2.91309     -2.06673  -2.50049   2.91309      13  -2.06673  -2.50049   2.91309
    11)    -1.65243  -2.58994   1.58632     -1.65243  -2.58994   1.58632      14  -1.65243  -2.58994   1.58632
    12)    -2.01070  -1.58121   0.68944     -2.01070  -1.58121   0.68944      15  -2.01070  -1.58121   0.68944
    13)    -3.73160  -2.17171  -2.04862     -3.73160  -2.17171  -2.04862      20  -3.73160  -2.17171  -2.04862
    14)    -5.71171   3.58768  -0.46365     -5.71171   3.58768  -0.46365      29  -5.71171   3.58768  -0.46365
    15)    -1.60564   0.54450  -3.10045     -1.60564   0.54450  -3.10045       3  -1.60564   0.54450  -3.10045
    16)    -3.39049   2.26915  -3.33023     -3.39049   2.26915  -3.33023       5  -3.39049   2.26915  -3.33023
    17)    -4.53992   1.71016   0.78060     -4.53992   1.71016   0.78060       8  -4.53992   1.71016   0.78060
    18)    -3.78850  -1.12853  -2.38637     -3.78850  -1.12853  -2.38637      22  -3.78850  -1.12853  -2.38637
    19)    -4.22190  -2.29496  -1.07339     -4.22190  -2.29496  -1.07339      23  -4.22190  -2.29496  -1.07339
    20)    -5.11432   3.94760   0.39450     -5.11432   3.94760   0.39450      30  -5.11432   3.94760   0.39450
    21)    -6.38404   2.78632  -0.10631     -6.38404   2.78632  -0.10631      31  -6.38404   2.78632  -0.10631
    22)    -6.32360   4.41606  -0.84393     -6.32360   4.41606  -0.84393      32  -6.32360   4.41606  -0.84393
    23)    -1.55690  -1.46875  -0.63412     -1.55690  -1.46875  -0.63412      16  -1.55690  -1.46875  -0.63412
    24)    -1.98587  -2.58101  -1.80753     -1.98587  -2.58101  -1.80753      17  -1.98587  -2.58101  -1.80753
    25)    -1.24342  -2.19507  -2.99910     -1.24342  -2.19507  -2.99910      18  -1.24342  -2.19507  -2.99910
    26)    -1.93125  -3.93625  -1.28792     -1.93125  -3.93625  -1.28792      19  -1.93125  -3.93625  -1.28792
    27)    -4.90207   3.16286  -1.51829     -4.90207   3.16286  -1.51829      28  -4.90207   3.16286  -1.51829
    28)    -4.46570  -3.24375  -3.23366     -4.46570  -3.24375  -3.23366      21  -4.46570  -3.24375  -3.23366
    29)    -0.85010  -3.58141   1.24533     -0.85010  -3.58141   1.24533      24  -0.85010  -3.58141   1.24533
    30)    -1.68544  -3.41815   3.78861     -1.68544  -3.41815   3.78861      25  -1.68544  -3.41815   3.78861
    31)    -3.15190  -1.31589   4.63155     -3.15190  -1.31589   4.63155      26  -3.15190  -1.31589   4.63155
    32)    -3.82865   0.66082   2.92847     -3.82865   0.66082   2.92847      27  -3.82865   0.66082   2.92847
    33)     0.05375  -0.11919  -0.71175      0.05375  -0.11919  -0.71175      99   0.05375  -0.11919  -0.71175



                                            ****************************
                                            *  Fragment Type : ligand  *
                                            ****************************
  

 Fragment no.    2   (in the list of all fragments)
 -----------------
 The local coordinate frame is identical to the molecular frame.

 Check Atomic Coordinates:

                  Master (on file)          After Computed Tranformation               As specified on Input
           ----------------------------     ----------------------------     ---------------------------------
     1)    -2.64278   5.56998  -0.81323     -2.64278   5.56998  -0.81323      67  -2.64278   5.56998  -0.81323
     2)    -1.32725   4.05576   0.63728     -1.32725   4.05576   0.63728      68  -1.32725   4.05576   0.63728
     3)     1.19837   4.30603   1.74332      1.19837   4.30603   1.74332      75   1.19837   4.30603   1.74332
     4)     3.77780  -3.21411   1.15205      3.77780  -3.21411   1.15205      82   3.77780  -3.21411   1.15205
     5)     3.79531  -5.68286   1.01883      3.79531  -5.68286   1.01883      83   3.79531  -5.68286   1.01883
     6)     2.27333  -6.86400  -0.55756      2.27333  -6.86400  -0.55756      84   2.27333  -6.86400  -0.55756
     7)     0.73894  -5.54540  -2.02334      0.73894  -5.54540  -2.02334      85   0.73894  -5.54540  -2.02334
     8)     0.75645  -3.07860  -1.92956      0.75645  -3.07860  -1.92956      86   0.75645  -3.07860  -1.92956
     9)     0.65531   4.73177   4.12906      0.65531   4.73177   4.12906      87   0.65531   4.73177   4.12906
    10)    -0.54425   3.00618   5.46373     -0.54425   3.00618   5.46373      88  -0.54425   3.00618   5.46373
    11)    -1.18264   0.84040   4.40959     -1.18264   0.84040   4.40959      89  -1.18264   0.84040   4.40959
    12)    -0.58513   0.40310   2.02986     -0.58513   0.40310   2.02986      90  -0.58513   0.40310   2.02986
    13)     2.29040   4.03031  -1.47185      2.29040   4.03031  -1.47185      91   2.29040   4.03031  -1.47185
    14)     4.71485   4.45950  -1.65883      4.71485   4.45950  -1.65883      92   4.71485   4.45950  -1.65883
    15)     6.32842   3.08399  -0.33675      6.32842   3.08399  -0.33675      93   6.32842   3.08399  -0.33675
    16)     5.47392   1.31818   1.18710      5.47392   1.31818   1.18710      94   5.47392   1.31818   1.18710
    17)     3.43181   1.94780   3.30151      3.43181   1.94780   3.30151      95   3.43181   1.94780   3.30151
    18)     2.59130   0.43895   5.08299      2.59130   0.43895   5.08299      96   2.59130   0.43895   5.08299
    19)     1.55887  -1.75480   4.45391      1.55887  -1.75480   4.45391      97   1.55887  -1.75480   4.45391
    20)     1.47646  -2.43868   2.08649      1.47646  -2.43868   2.08649      98   1.47646  -2.43868   2.08649
    21)     2.54608   0.58461  -2.65219      2.54608   0.58461  -2.65219      40   2.54608   0.58461  -2.65219
    22)     4.54444   1.34260  -3.93906      4.54444   1.34260  -3.93906      41   4.54444   1.34260  -3.93906
    23)     6.80785   0.51713  -3.31172      6.80785   0.51713  -3.31172      42   6.80785   0.51713  -3.31172
    24)     7.06792  -1.06621  -1.40802      7.06792  -1.06621  -1.40802      43   7.06792  -1.06621  -1.40802
    25)     5.08273  -1.80713  -0.12780      5.08273  -1.80713  -0.12780      44   5.08273  -1.80713  -0.12780
    26)     0.78260   2.59020  -2.82699      0.78260   2.59020  -2.82699      64   0.78260   2.59020  -2.82699
    27)    -0.48601   4.15574  -4.26315     -0.48601   4.15574  -4.26315      65  -0.48601   4.15574  -4.26315
    28)    -2.21707   5.64503  -3.26254     -2.21707   5.64503  -3.26254      66  -2.21707   5.64503  -3.26254
    29)     0.29949   2.33619   1.73021      0.29949   2.33619   1.73021      69   0.29949   2.33619   1.73021
    30)    -0.35051   1.36359   2.49082     -0.35051   1.36359   2.49082      70  -0.35051   1.36359   2.49082
    31)    -0.66121   1.60409   3.82799     -0.66121   1.60409   3.82799      71  -0.66121   1.60409   3.82799
    32)    -0.30497   2.81569   4.41470     -0.30497   2.81569   4.41470      72  -0.30497   2.81569   4.41470
    33)     0.36613   3.78538   3.66558      0.36613   3.78538   3.66558      73   0.36613   3.78538   3.66558
    34)     0.66734   3.54951   2.32743      0.66734   3.54951   2.32743      74   0.66734   3.54951   2.32743
    35)     1.42822  -3.64839  -1.28389      1.42822  -3.64839  -1.28389      76   1.42822  -3.64839  -1.28389
    36)     1.42839  -5.04056  -1.34394      1.42839  -5.04056  -1.34394      77   1.42839  -5.04056  -1.34394
    37)     2.27881  -5.77196  -0.51950      2.27881  -5.77196  -0.51950      78   2.27881  -5.77196  -0.51950
    38)     3.13069  -5.11024   0.36728      3.13069  -5.11024   0.36728      79   3.13069  -5.11024   0.36728
    39)     3.12806  -3.72036   0.43409      3.12806  -3.72036   0.43409      80   3.12806  -3.72036   0.43409
    40)     2.27217  -2.97815  -0.39271      2.27217  -2.97815  -0.39271      81   2.27217  -2.97815  -0.39271
    41)     3.68674  -0.64789  -1.30722      3.68674  -0.64789  -1.30722      34   3.68674  -0.64789  -1.30722
    42)     4.96040  -1.11555  -0.96379      4.96040  -1.11555  -0.96379      35   4.96040  -1.11555  -0.96379
    43)     6.07630  -0.69796  -1.68210      6.07630  -0.69796  -1.68210      36   6.07630  -0.69796  -1.68210
    44)     5.92989   0.18843  -2.75032      5.92989   0.18843  -2.75032      37   5.92989   0.18843  -2.75032
    45)     4.66379   0.64991  -3.10289      4.66379   0.64991  -3.10289      38   4.66379   0.64991  -3.10289
    46)     3.54511   0.22806  -2.38665      3.54511   0.22806  -2.38665      39   3.54511   0.22806  -2.38665
    47)     2.44585  -0.65615   1.34051      2.44585  -0.65615   1.34051      45   2.44585  -0.65615   1.34051
    48)     1.93007  -1.48136   2.35288      1.93007  -1.48136   2.35288      46   1.93007  -1.48136   2.35288
    49)     1.97490  -1.09576   3.68818      1.97490  -1.09576   3.68818      47   1.97490  -1.09576   3.68818
    50)     2.54558   0.12654   4.03760      2.54558   0.12654   4.03760      48   2.54558   0.12654   4.03760
    51)     3.02671   0.96737   3.04068      3.02671   0.96737   3.04068      49   3.02671   0.96737   3.04068
    52)     2.95876   0.61258   1.68594      2.95876   0.61258   1.68594      50   2.95876   0.61258   1.68594
    53)     3.40954   1.63671   0.69541      3.40954   1.63671   0.69541      51   3.40954   1.63671   0.69541
    54)     4.77628   1.91320   0.59353      4.77628   1.91320   0.59353      52   4.77628   1.91320   0.59353
    55)     5.25392   2.90465  -0.25835      5.25392   2.90465  -0.25835      53   5.25392   2.90465  -0.25835
    56)     4.35541   3.66563  -1.00000      4.35541   3.66563  -1.00000      54   4.35541   3.66563  -1.00000
    57)     2.98900   3.41812  -0.89905      2.98900   3.41812  -0.89905      55   2.98900   3.41812  -0.89905
    58)     2.49964   2.40158  -0.07138      2.49964   2.40158  -0.07138      56   2.49964   2.40158  -0.07138
    59)    -0.14549   3.25707  -0.98693     -0.14549   3.25707  -0.98693      58  -0.14549   3.25707  -0.98693
    60)    -1.12679   4.08728  -0.43514     -1.12679   4.08728  -0.43514      59  -1.12679   4.08728  -0.43514
    61)    -1.86802   4.93829  -1.25349     -1.86802   4.93829  -1.25349      60  -1.86802   4.93829  -1.25349
    62)    -1.63227   4.97801  -2.62515     -1.63227   4.97801  -2.62515      61  -1.63227   4.97801  -2.62515
    63)    -0.66293   4.14551  -3.18505     -0.66293   4.14551  -3.18505      62  -0.66293   4.14551  -3.18505
    64)     0.06030   3.27607  -2.37524      0.06030   3.27607  -2.37524      63   0.06030   3.27607  -2.37524
    65)     2.17756  -1.15453  -0.40416      2.17756  -1.15453  -0.40416      33   2.17756  -1.15453  -0.40416
    66)     0.71340   1.97798  -0.01257      0.71340   1.97798  -0.01257      57   0.71340   1.97798  -0.01257

 Total nr. of (C)SFOs (summation over all irreps) :  1492

 Specify PRINT SFO in the input file to get a full list

 Nr. of SFOs for ir.rep.           A :  1492



 ================================
 (Slater-type)  F U N C T I O N S  ***  (Basis and Fit)  ***
 ================================
  

 Atom Type    1  (C)
 ==============

 Valence Basis Sets:   9
 -----------------------
   1 S    7.680000
   1 S    5.000000
   2 S    1.280000
   2 S    2.100000
   2 S    4.600000
   2 P    0.820000
   2 P    1.480000
   2 P    2.940000
   3 D    2.200000

 Charge Fitting Sets (for the computation of the Coulomb Potential):  22
 -----------------------------------------------------------------------
   1 S   15.360000
   2 S   17.530000
   2 S   12.070000
   2 S    8.310000
   2 S    5.730000
   3 S    5.780000
   3 S    4.220000
   3 S    3.080000
   3 S    2.250000
   3 S    1.640000
   2 P    9.880000
   2 P    5.800000
   3 P    5.050000
   3 P    3.230000
   3 P    2.060000
   3 D    7.200000
   3 D    4.400000
   3 D    2.690000
   3 D    1.640000
   4 F    5.400000
   4 F    3.550000
   5 G    4.500000

 Atom Type    2  (H)
 ==============

 Valence Basis Sets:   4
 -----------------------
   1 S    0.690000
   1 S    0.920000
   1 S    1.580000
   2 P    1.250000

 Charge Fitting Sets (for the computation of the Coulomb Potential):  11
 -----------------------------------------------------------------------
   1 S    3.160000
   1 S    2.090000
   1 S    1.380000
   2 S    1.500000
   2 P    4.000000
   2 P    2.650000
   2 P    1.750000
   3 D    4.000000
   3 D    2.500000
   4 F    3.000000
   5 G    4.000000

 Atom Type    3  (N)
 ==============

 Valence Basis Sets:   9
 -----------------------
   1 S    8.740000
   1 S    5.900000
   2 S    5.150000
   2 S    2.500000
   2 S    1.500000
   2 P    3.680000
   2 P    1.880000
   2 P    1.000000
   3 D    2.200000

 Charge Fitting Sets (for the computation of the Coulomb Potential):  22
 -----------------------------------------------------------------------
   1 S   17.480000
   2 S   20.150000
   2 S   13.990000
   2 S    9.710000
   2 S    6.740000
   3 S    6.860000
   3 S    5.040000
   3 S    3.700000
   3 S    2.720000
   3 S    2.000000
   2 P   11.320000
   2 P    6.730000
   3 P    5.920000
   3 P    3.820000
   3 P    2.460000
   3 D    8.100000
   3 D    5.080000
   3 D    3.190000
   3 D    2.000000
   4 F    5.800000
   4 F    3.600000
   5 G    4.500000

 Atom Type    4  (S)
 ==============

 Valence Basis Sets:  13
 -----------------------
   1 S   19.400000
   1 S   14.350000
   2 S    5.900000
   2 S    4.250000
   2 P    8.050000
   2 P    4.550000
   3 S    3.450000
   3 S    2.250000
   3 S    1.500000
   3 P    2.650000
   3 P    1.600000
   3 P    1.000000
   3 D    2.100000

 Charge Fitting Sets (for the computation of the Coulomb Potential):  30
 -----------------------------------------------------------------------
   1 S   38.800000
   1 S   23.350000
   2 S   26.020000
   2 S   17.570000
   3 S   17.420000
   3 S   12.500000
   3 S    8.980000
   4 S    8.520000
   4 S    6.360000
   4 S    4.750000
   5 S    4.420000
   5 S    3.390000
   5 S    2.600000
   5 S    2.000000
   2 P   27.450000
   3 P   20.250000
   4 P   14.920000
   4 P    8.780000
   5 P    6.520000
   5 P    4.040000
   5 P    2.500000
   3 D   20.900000
   4 D   14.560000
   4 D    8.130000
   5 D    5.740000
   5 D    3.390000
   5 D    2.000000
   4 F    5.000000
   4 F    3.000000
   5 G    3.620000

 Atom Type    5  (O)
 ==============

 Valence Basis Sets:   9
 -----------------------
   1 S    9.800000
   1 S    6.800000
   2 S    7.580000
   2 S    2.880000
   2 S    1.720000
   2 P    4.080000
   2 P    2.080000
   2 P    1.120000
   3 D    2.000000

 Charge Fitting Sets (for the computation of the Coulomb Potential):  22
 -----------------------------------------------------------------------
   1 S   19.600000
   2 S   22.600000
   2 S   15.680000
   2 S   10.890000
   2 S    7.560000
   3 S    7.690000
   3 S    5.650000
   3 S    4.150000
   3 S    3.050000
   3 S    2.240000
   2 P   12.860000
   2 P    7.680000
   3 P    6.780000
   3 P    4.390000
   3 P    2.840000
   3 D    8.800000
   3 D    5.580000
   3 D    3.530000
   3 D    2.240000
   4 F    6.200000
   4 F    3.700000
   5 G    4.500000

 Atom Type    6  (Cl)
 ==============

 Valence Basis Sets:  13
 -----------------------
   1 S   20.300000
   1 S   15.250000
   2 S    6.250000
   2 S    4.450000
   2 P    8.850000
   2 P    5.050000
   3 S    3.450000
   3 S    2.300000
   3 S    1.600000
   3 P    3.350000
   3 P    2.050000
   3 P    1.200000
   3 D    2.000000

 Charge Fitting Sets (for the computation of the Coulomb Potential):  30
 -----------------------------------------------------------------------
   1 S   40.600000
   1 S   24.830000
   2 S   28.080000
   2 S   19.200000
   3 S   19.250000
   3 S   13.970000
   3 S   10.130000
   4 S    9.710000
   4 S    7.320000
   4 S    5.510000
   5 S    5.170000
   5 S    4.000000
   5 S    3.100000
   5 S    2.400000
   2 P   29.150000
   3 P   21.740000
   4 P   16.160000
   4 P    9.600000
   5 P    7.180000
   5 P    4.480000
   5 P    2.800000
   3 D   21.950000
   4 D   15.750000
   4 D    9.040000
   5 D    6.550000
   5 D    3.960000
   5 D    2.400000
   4 F    5.000000
   4 F    3.000000
   5 G    3.500000

 Atom Type    7  (F)
 ==============

 Valence Basis Sets:   9
 -----------------------
   1 S   10.880000
   1 S    7.700000
   2 S    3.240000
   2 S    1.940000
   2 S    0.740000
   2 P    4.540000
   2 P    2.300000
   2 P    1.240000
   3 D    2.000000

 Charge Fitting Sets (for the computation of the Coulomb Potential):  23
 -----------------------------------------------------------------------
   1 S   21.760000
   2 S   24.390000
   2 S   16.560000
   2 S   11.240000
   2 S    7.630000
   3 S    7.600000
   3 S    5.480000
   3 S    3.950000
   3 S    2.850000
   3 S    2.050000
   3 S    1.480000
   2 P   14.400000
   2 P    7.530000
   3 P    5.900000
   3 P    3.420000
   3 P    1.980000
   3 D    9.700000
   3 D    6.160000
   3 D    3.910000
   3 D    2.480000
   4 F    6.500000
   4 F    3.750000
   5 G    4.500000

 Atom Type    8  (Pd)
 ==============

 Valence Basis Sets:  26
 -----------------------
   1 S  306.000000
   1 S   76.400000
   1 S   45.900000
   2 S   53.800000
   2 S   19.550000
   3 S   10.150000
   3 S    6.650000
   4 S    6.150000
   4 S    3.900000
   5 S    2.500000
   5 S    1.450000
   5 S    0.850000
   2 P   29.100000
   2 P   18.750000
   3 P   11.250000
   3 P    8.100000
   4 P    5.950000
   4 P    3.950000
   4 P    2.700000
   3 D   17.550000
   3 D   10.450000
   3 D    6.900000
   4 D    4.250000
   4 D    2.200000
   4 D    1.100000
   5 P    1.450000

 Charge Fitting Sets (for the computation of the Coulomb Potential):  58
 -----------------------------------------------------------------------
   1 S  612.000000
   1 S  446.101000
   1 S  325.174000
   1 S  237.027000
   1 S  172.774000
   1 S  125.939000
   1 S   91.800000
   1 S   53.670000
   2 S   58.190000
   2 S   38.430000
   3 S   37.300000
   3 S   26.280000
   4 S   24.500000
   4 S   18.000000
   5 S   16.470000
   5 S   12.460000
   6 S   11.300000
   6 S    8.740000
   7 S    7.890000
   7 S    6.210000
   8 S    5.590000
   8 S    4.470000
   8 S    3.570000
   9 S    3.210000
   9 S    2.600000
   9 S    2.100000
   9 S    1.700000
   2 P   64.650000
   3 P   49.410000
   4 P   37.530000
   5 P   28.620000
   6 P   21.980000
   6 P   14.500000
   7 P   11.220000
   7 P    7.620000
   8 P    5.940000
   8 P    4.130000
   9 P    3.240000
   9 P    2.300000
   3 D   56.350000
   4 D   37.260000
   5 D   25.120000
   6 D   17.230000
   6 D   10.190000
   7 D    7.110000
   7 D    4.360000
   8 D    3.090000
   8 D    1.950000
   4 F   47.900000
   5 F   28.270000
   6 F   17.190000
   6 F    9.040000
   7 F    5.640000
   7 F    3.100000
   5 G   20.900000
   6 G    9.980000
   7 G    4.980000
   7 G    2.200000

 Atom Type    9  (H)
 ==============

 Valence Basis Sets:   4
 -----------------------
   1 S    0.690000
   1 S    0.920000
   1 S    1.580000
   2 P    1.250000

 Charge Fitting Sets (for the computation of the Coulomb Potential):  11
 -----------------------------------------------------------------------
   1 S    3.160000
   1 S    2.090000
   1 S    1.380000
   2 S    1.500000
   2 P    4.000000
   2 P    2.650000
   2 P    1.750000
   3 D    4.000000
   3 D    2.500000
   4 F    3.000000
   5 G    4.000000

 Atom Type   10  (C)
 ==============

 Valence Basis Sets:   9
 -----------------------
   1 S    7.680000
   1 S    5.000000
   2 S    1.280000
   2 S    2.100000
   2 S    4.600000
   2 P    0.820000
   2 P    1.480000
   2 P    2.940000
   3 D    2.200000

 Charge Fitting Sets (for the computation of the Coulomb Potential):  22
 -----------------------------------------------------------------------
   1 S   15.360000
   2 S   17.530000
   2 S   12.070000
   2 S    8.310000
   2 S    5.730000
   3 S    5.780000
   3 S    4.220000
   3 S    3.080000
   3 S    2.250000
   3 S    1.640000
   2 P    9.880000
   2 P    5.800000
   3 P    5.050000
   3 P    3.230000
   3 P    2.060000
   3 D    7.200000
   3 D    4.400000
   3 D    2.690000
   3 D    1.640000
   4 F    5.400000
   4 F    3.550000
   5 G    4.500000

 Atom Type   11  (P)
 ==============

 Valence Basis Sets:  13
 -----------------------
   1 S   18.000000
   1 S   13.350000
   2 S    5.600000
   2 S    4.050000
   2 P    7.450000
   2 P    4.100000
   3 S    2.700000
   3 S    1.850000
   3 S    1.300000
   3 P    2.300000
   3 P    1.350000
   3 P    0.850000
   3 D    1.900000

 Charge Fitting Sets (for the computation of the Coulomb Potential):  30
 -----------------------------------------------------------------------
   1 S   36.000000
   1 S   21.450000
   2 S   23.670000
   2 S   15.860000
   3 S   15.600000
   3 S   11.130000
   3 S    7.940000
   4 S    7.490000
   4 S    5.560000
   4 S    4.130000
   5 S    3.810000
   5 S    2.910000
   5 S    2.230000
   5 S    1.700000
   2 P   25.450000
   3 P   18.490000
   4 P   13.440000
   4 P    7.810000
   5 P    5.730000
   5 P    3.510000
   5 P    2.150000
   3 D   19.350000
   4 D   13.230000
   4 D    7.250000
   5 D    5.040000
   5 D    2.930000
   5 D    1.700000
   4 F    5.000000
   4 F    3.000000
   5 G    3.750000


 BAS: List of all Elementary Cartesian Basis Functions
 =====================================================

 The numbering in the list below (to the right of the function characteristics) is referred
 to in print-outs of MO eigenvectors and Mulliken populations in the BAS representation
 (as contrasted to the SFO representation).

 Notes:
 1. The functions are characterized by a polynomial prefactor (powers of x,y,z and r) and
    an exponential decay factor alpha.
 2. Since the basis sets are specific for an atom TYPE, the individual functions occur on
    all atoms of that type.
 3. The word 'Core' in the left margin signals that it is a Core Function (CF) : not a
    degree of freedom in the valence set, but only used to ensure orthogonalization of
    the other valence basis functions on the frozen Core Orbitals.


 (power of) X  Y  Z  R     Alpha  on Atom
            ==========     =====     ==========

 C                                    1    2    3    4    5    6    7    8    9   10   11   12   13   14
                                  ---------------------------------------------------------------------------
            0  0  0  0     7.680      1   21   41   61   81  101  121  141  161  181  201  221  241  261
            0  0  0  0     5.000      2   22   42   62   82  102  122  142  162  182  202  222  242  262
            0  0  0  1     1.280      3   23   43   63   83  103  123  143  163  183  203  223  243  263
            0  0  0  1     2.100      4   24   44   64   84  104  124  144  164  184  204  224  244  264
            0  0  0  1     4.600      5   25   45   65   85  105  125  145  165  185  205  225  245  265
            1  0  0  0     0.820      6   26   46   66   86  106  126  146  166  186  206  226  246  266
            0  1  0  0     0.820      7   27   47   67   87  107  127  147  167  187  207  227  247  267
            0  0  1  0     0.820      8   28   48   68   88  108  128  148  168  188  208  228  248  268
            1  0  0  0     1.480      9   29   49   69   89  109  129  149  169  189  209  229  249  269
            0  1  0  0     1.480     10   30   50   70   90  110  130  150  170  190  210  230  250  270
            0  0  1  0     1.480     11   31   51   71   91  111  131  151  171  191  211  231  251  271
            1  0  0  0     2.940     12   32   52   72   92  112  132  152  172  192  212  232  252  272
            0  1  0  0     2.940     13   33   53   73   93  113  133  153  173  193  213  233  253  273
            0  0  1  0     2.940     14   34   54   74   94  114  134  154  174  194  214  234  254  274
            2  0  0  0     2.200     15   35   55   75   95  115  135  155  175  195  215  235  255  275
            1  1  0  0     2.200     16   36   56   76   96  116  136  156  176  196  216  236  256  276
            1  0  1  0     2.200     17   37   57   77   97  117  137  157  177  197  217  237  257  277
            0  2  0  0     2.200     18   38   58   78   98  118  138  158  178  198  218  238  258  278
            0  1  1  0     2.200     19   39   59   79   99  119  139  159  179  199  219  239  259  279
            0  0  2  0     2.200     20   40   60   80  100  120  140  160  180  200  220  240  260  280

 H                                   15   16   17   18   19   20   21   22
                                  ---------------------------------------------------------------------------
            0  0  0  0     0.690    281  287  293  299  305  311  317  323
            0  0  0  0     0.920    282  288  294  300  306  312  318  324
            0  0  0  0     1.580    283  289  295  301  307  313  319  325
            1  0  0  0     1.250    284  290  296  302  308  314  320  326
            0  1  0  0     1.250    285  291  297  303  309  315  321  327
            0  0  1  0     1.250    286  292  298  304  310  316  322  328

 N                                   23
                                  ---------------------------------------------------------------------------
            0  0  0  0     8.740    329
            0  0  0  0     5.900    330
            0  0  0  1     5.150    331
            0  0  0  1     2.500    332
            0  0  0  1     1.500    333
            1  0  0  0     3.680    334
            0  1  0  0     3.680    335
            0  0  1  0     3.680    336
            1  0  0  0     1.880    337
            0  1  0  0     1.880    338
            0  0  1  0     1.880    339
            1  0  0  0     1.000    340
            0  1  0  0     1.000    341
            0  0  1  0     1.000    342
            2  0  0  0     2.200    343
            1  1  0  0     2.200    344
            1  0  1  0     2.200    345
            0  2  0  0     2.200    346
            0  1  1  0     2.200    347
            0  0  2  0     2.200    348

 S                                   24
                                  ---------------------------------------------------------------------------
            0  0  0  0    19.400    349
            0  0  0  0    14.350    350
            0  0  0  1     5.900    351
            0  0  0  1     4.250    352
            1  0  0  0     8.050    353
            0  1  0  0     8.050    354
            0  0  1  0     8.050    355
            1  0  0  0     4.550    356
            0  1  0  0     4.550    357
            0  0  1  0     4.550    358
            0  0  0  2     3.450    359
            0  0  0  2     2.250    360
            0  0  0  2     1.500    361
            1  0  0  1     2.650    362
            0  1  0  1     2.650    363
            0  0  1  1     2.650    364
            1  0  0  1     1.600    365
            0  1  0  1     1.600    366
            0  0  1  1     1.600    367
            1  0  0  1     1.000    368
            0  1  0  1     1.000    369
            0  0  1  1     1.000    370
            2  0  0  0     2.100    371
            1  1  0  0     2.100    372
            1  0  1  0     2.100    373
            0  2  0  0     2.100    374
            0  1  1  0     2.100    375
            0  0  2  0     2.100    376

 O                                   25   26   27
                                  ---------------------------------------------------------------------------
            0  0  0  0     9.800    377  397  417
            0  0  0  0     6.800    378  398  418
            0  0  0  1     7.580    379  399  419
            0  0  0  1     2.880    380  400  420
            0  0  0  1     1.720    381  401  421
            1  0  0  0     4.080    382  402  422
            0  1  0  0     4.080    383  403  423
            0  0  1  0     4.080    384  404  424
            1  0  0  0     2.080    385  405  425
            0  1  0  0     2.080    386  406  426
            0  0  1  0     2.080    387  407  427
            1  0  0  0     1.120    388  408  428
            0  1  0  0     1.120    389  409  429
            0  0  1  0     1.120    390  410  430
            2  0  0  0     2.000    391  411  431
            1  1  0  0     2.000    392  412  432
            1  0  1  0     2.000    393  413  433
            0  2  0  0     2.000    394  414  434
            0  1  1  0     2.000    395  415  435
            0  0  2  0     2.000    396  416  436

 Cl                                  28
                                  ---------------------------------------------------------------------------
            0  0  0  0    20.300    437
            0  0  0  0    15.250    438
            0  0  0  1     6.250    439
            0  0  0  1     4.450    440
            1  0  0  0     8.850    441
            0  1  0  0     8.850    442
            0  0  1  0     8.850    443
            1  0  0  0     5.050    444
            0  1  0  0     5.050    445
            0  0  1  0     5.050    446
            0  0  0  2     3.450    447
            0  0  0  2     2.300    448
            0  0  0  2     1.600    449
            1  0  0  1     3.350    450
            0  1  0  1     3.350    451
            0  0  1  1     3.350    452
            1  0  0  1     2.050    453
            0  1  0  1     2.050    454
            0  0  1  1     2.050    455
            1  0  0  1     1.200    456
            0  1  0  1     1.200    457
            0  0  1  1     1.200    458
            2  0  0  0     2.000    459
            1  1  0  0     2.000    460
            1  0  1  0     2.000    461
            0  2  0  0     2.000    462
            0  1  1  0     2.000    463
            0  0  2  0     2.000    464

 F                                   29   30   31   32
                                  ---------------------------------------------------------------------------
            0  0  0  0    10.880    465  485  505  525
            0  0  0  0     7.700    466  486  506  526
            0  0  0  1     3.240    467  487  507  527
            0  0  0  1     1.940    468  488  508  528
            0  0  0  1     0.740    469  489  509  529
            1  0  0  0     4.540    470  490  510  530
            0  1  0  0     4.540    471  491  511  531
            0  0  1  0     4.540    472  492  512  532
            1  0  0  0     2.300    473  493  513  533
            0  1  0  0     2.300    474  494  514  534
            0  0  1  0     2.300    475  495  515  535
            1  0  0  0     1.240    476  496  516  536
            0  1  0  0     1.240    477  497  517  537
            0  0  1  0     1.240    478  498  518  538
            2  0  0  0     2.000    479  499  519  539
            1  1  0  0     2.000    480  500  520  540
            1  0  1  0     2.000    481  501  521  541
            0  2  0  0     2.000    482  502  522  542
            0  1  1  0     2.000    483  503  523  543
            0  0  2  0     2.000    484  504  524  544

 Pd                                  33
                                  ---------------------------------------------------------------------------
            0  0  0  0   306.000    545
            0  0  0  0    76.400    546
            0  0  0  0    45.900    547
            0  0  0  1    53.800    548
            0  0  0  1    19.550    549
            0  0  0  2    10.150    550
            0  0  0  2     6.650    551
            0  0  0  3     6.150    552
            0  0  0  3     3.900    553
            0  0  0  4     2.500    554
            0  0  0  4     1.450    555
            0  0  0  4     0.850    556
            1  0  0  0    29.100    557
            0  1  0  0    29.100    558
            0  0  1  0    29.100    559
            1  0  0  0    18.750    560
            0  1  0  0    18.750    561
            0  0  1  0    18.750    562
            1  0  0  1    11.250    563
            0  1  0  1    11.250    564
            0  0  1  1    11.250    565
            1  0  0  1     8.100    566
            0  1  0  1     8.100    567
            0  0  1  1     8.100    568
            1  0  0  2     5.950    569
            0  1  0  2     5.950    570
            0  0  1  2     5.950    571
            1  0  0  2     3.950    572
            0  1  0  2     3.950    573
            0  0  1  2     3.950    574
            1  0  0  2     2.700    575
            0  1  0  2     2.700    576
            0  0  1  2     2.700    577
            2  0  0  0    17.550    578
            1  1  0  0    17.550    579
            1  0  1  0    17.550    580
            0  2  0  0    17.550    581
            0  1  1  0    17.550    582
            0  0  2  0    17.550    583
            2  0  0  0    10.450    584
            1  1  0  0    10.450    585
            1  0  1  0    10.450    586
            0  2  0  0    10.450    587
            0  1  1  0    10.450    588
            0  0  2  0    10.450    589
            2  0  0  0     6.900    590
            1  1  0  0     6.900    591
            1  0  1  0     6.900    592
            0  2  0  0     6.900    593
            0  1  1  0     6.900    594
            0  0  2  0     6.900    595
            2  0  0  1     4.250    596
            1  1  0  1     4.250    597
            1  0  1  1     4.250    598
            0  2  0  1     4.250    599
            0  1  1  1     4.250    600
            0  0  2  1     4.250    601
            2  0  0  1     2.200    602
            1  1  0  1     2.200    603
            1  0  1  1     2.200    604
            0  2  0  1     2.200    605
            0  1  1  1     2.200    606
            0  0  2  1     2.200    607
            2  0  0  1     1.100    608
            1  1  0  1     1.100    609
            1  0  1  1     1.100    610
            0  2  0  1     1.100    611
            0  1  1  1     1.100    612
            0  0  2  1     1.100    613
            1  0  0  3     1.450    614
            0  1  0  3     1.450    615
            0  0  1  3     1.450    616

 H                                   34   35   36   37   38   39   40   41   42   43   44   45   46   47   48
                                     49   50   51   52   53   54   55   56   57   58   59   60   61
                                  ---------------------------------------------------------------------------
            0  0  0  0     0.690    617  623  629  635  641  647  653  659  665  671  677  683  689  695  701
                                    707  713  719  725  731  737  743  749  755  761  767  773  779
            0  0  0  0     0.920    618  624  630  636  642  648  654  660  666  672  678  684  690  696  702
                                    708  714  720  726  732  738  744  750  756  762  768  774  780
            0  0  0  0     1.580    619  625  631  637  643  649  655  661  667  673  679  685  691  697  703
                                    709  715  721  727  733  739  745  751  757  763  769  775  781
            1  0  0  0     1.250    620  626  632  638  644  650  656  662  668  674  680  686  692  698  704
                                    710  716  722  728  734  740  746  752  758  764  770  776  782
            0  1  0  0     1.250    621  627  633  639  645  651  657  663  669  675  681  687  693  699  705
                                    711  717  723  729  735  741  747  753  759  765  771  777  783
            0  0  1  0     1.250    622  628  634  640  646  652  658  664  670  676  682  688  694  700  706
                                    712  718  724  730  736  742  748  754  760  766  772  778  784

 C                                   62   63   64   65   66   67   68   69   70   71   72   73   74   75   76
                                     77   78   79   80   81   82   83   84   85   86   87   88   89   90   91
                                     92   93   94   95   96   97
                                  ---------------------------------------------------------------------------
            0  0  0  0     7.680    785  805  825  845  865  885  905  925  945  965  985 1005 1025 1045 1065
                                   1085 1105 1125 1145 1165 1185 1205 1225 1245 1265 1285 1305 1325 1345 1365
                                   1385 1405 1425 1445 1465 1485
            0  0  0  0     5.000    786  806  826  846  866  886  906  926  946  966  986 1006 1026 1046 1066
                                   1086 1106 1126 1146 1166 1186 1206 1226 1246 1266 1286 1306 1326 1346 1366
                                   1386 1406 1426 1446 1466 1486
            0  0  0  1     1.280    787  807  827  847  867  887  907  927  947  967  987 1007 1027 1047 1067
                                   1087 1107 1127 1147 1167 1187 1207 1227 1247 1267 1287 1307 1327 1347 1367
                                   1387 1407 1427 1447 1467 1487
            0  0  0  1     2.100    788  808  828  848  868  888  908  928  948  968  988 1008 1028 1048 1068
                                   1088 1108 1128 1148 1168 1188 1208 1228 1248 1268 1288 1308 1328 1348 1368
                                   1388 1408 1428 1448 1468 1488
            0  0  0  1     4.600    789  809  829  849  869  889  909  929  949  969  989 1009 1029 1049 1069
                                   1089 1109 1129 1149 1169 1189 1209 1229 1249 1269 1289 1309 1329 1349 1369
                                   1389 1409 1429 1449 1469 1489
            1  0  0  0     0.820    790  810  830  850  870  890  910  930  950  970  990 1010 1030 1050 1070
                                   1090 1110 1130 1150 1170 1190 1210 1230 1250 1270 1290 1310 1330 1350 1370
                                   1390 1410 1430 1450 1470 1490
            0  1  0  0     0.820    791  811  831  851  871  891  911  931  951  971  991 1011 1031 1051 1071
                                   1091 1111 1131 1151 1171 1191 1211 1231 1251 1271 1291 1311 1331 1351 1371
                                   1391 1411 1431 1451 1471 1491
            0  0  1  0     0.820    792  812  832  852  872  892  912  932  952  972  992 1012 1032 1052 1072
                                   1092 1112 1132 1152 1172 1192 1212 1232 1252 1272 1292 1312 1332 1352 1372
                                   1392 1412 1432 1452 1472 1492
            1  0  0  0     1.480    793  813  833  853  873  893  913  933  953  973  993 1013 1033 1053 1073
                                   1093 1113 1133 1153 1173 1193 1213 1233 1253 1273 1293 1313 1333 1353 1373
                                   1393 1413 1433 1453 1473 1493
            0  1  0  0     1.480    794  814  834  854  874  894  914  934  954  974  994 1014 1034 1054 1074
                                   1094 1114 1134 1154 1174 1194 1214 1234 1254 1274 1294 1314 1334 1354 1374
                                   1394 1414 1434 1454 1474 1494
            0  0  1  0     1.480    795  815  835  855  875  895  915  935  955  975  995 1015 1035 1055 1075
                                   1095 1115 1135 1155 1175 1195 1215 1235 1255 1275 1295 1315 1335 1355 1375
                                   1395 1415 1435 1455 1475 1495
            1  0  0  0     2.940    796  816  836  856  876  896  916  936  956  976  996 1016 1036 1056 1076
                                   1096 1116 1136 1156 1176 1196 1216 1236 1256 1276 1296 1316 1336 1356 1376
                                   1396 1416 1436 1456 1476 1496
            0  1  0  0     2.940    797  817  837  857  877  897  917  937  957  977  997 1017 1037 1057 1077
                                   1097 1117 1137 1157 1177 1197 1217 1237 1257 1277 1297 1317 1337 1357 1377
                                   1397 1417 1437 1457 1477 1497
            0  0  1  0     2.940    798  818  838  858  878  898  918  938  958  978  998 1018 1038 1058 1078
                                   1098 1118 1138 1158 1178 1198 1218 1238 1258 1278 1298 1318 1338 1358 1378
                                   1398 1418 1438 1458 1478 1498
            2  0  0  0     2.200    799  819  839  859  879  899  919  939  959  979  999 1019 1039 1059 1079
                                   1099 1119 1139 1159 1179 1199 1219 1239 1259 1279 1299 1319 1339 1359 1379
                                   1399 1419 1439 1459 1479 1499
            1  1  0  0     2.200    800  820  840  860  880  900  920  940  960  980 1000 1020 1040 1060 1080
                                   1100 1120 1140 1160 1180 1200 1220 1240 1260 1280 1300 1320 1340 1360 1380
                                   1400 1420 1440 1460 1480 1500
            1  0  1  0     2.200    801  821  841  861  881  901  921  941  961  981 1001 1021 1041 1061 1081
                                   1101 1121 1141 1161 1181 1201 1221 1241 1261 1281 1301 1321 1341 1361 1381
                                   1401 1421 1441 1461 1481 1501
            0  2  0  0     2.200    802  822  842  862  882  902  922  942  962  982 1002 1022 1042 1062 1082
                                   1102 1122 1142 1162 1182 1202 1222 1242 1262 1282 1302 1322 1342 1362 1382
                                   1402 1422 1442 1462 1482 1502
            0  1  1  0     2.200    803  823  843  863  883  903  923  943  963  983 1003 1023 1043 1063 1083
                                   1103 1123 1143 1163 1183 1203 1223 1243 1263 1283 1303 1323 1343 1363 1383
                                   1403 1423 1443 1463 1483 1503
            0  0  2  0     2.200    804  824  844  864  884  904  924  944  964  984 1004 1024 1044 1064 1084
                                   1104 1124 1144 1164 1184 1204 1224 1244 1264 1284 1304 1324 1344 1364 1384
                                   1404 1424 1444 1464 1484 1504

 P                                   98   99
                                  ---------------------------------------------------------------------------
            0  0  0  0    18.000   1505 1533
[...]
     450       11.3386         0.000       
     449       11.2198         0.000       
     448       11.1666         0.000       
     447       11.0909         0.000       
     446       11.0464         0.000       
     445       11.0267         0.000       
     444       10.9735         0.000       
     443       10.9109         0.000       
     442       10.8638         0.000       
     441       10.8201         0.000       
     440       10.7860         0.000       
     439       10.6954         0.000       
     438       10.6212         0.000       
     437       10.5983         0.000       
     436       10.5521         0.000       
     435       10.5060         0.000       
     434       10.4615         0.000       
     433       10.3669         0.000       
     432       10.3279         0.000       
     431       10.2222         0.000       
     430       10.2106         0.000       
     429       10.1382         0.000       
     428       10.0988         0.000       
     427       10.0549         0.000       
     426       10.0135         0.000       
     425        9.9243         0.000       
     424        9.9044         0.000       
     423        9.8600         0.000       
     422        9.8312         0.000       
     421        9.7265         0.000       
     420        9.6628         0.000       
     419        9.6144         0.000       
     418        9.5600         0.000       
     417        9.5334         0.000       
     416        9.4850         0.000       
     415        9.4699         0.000       
     414        9.3519         0.000       
     413        9.3027         0.000       
     412        9.2783         0.000       
     411        9.2539         0.000       
     410        9.1962         0.000       
     409        9.1284         0.000       
     408        9.1186         0.000       
     407        9.0470         0.000       
     406        9.0057         0.000       
     405        8.8981         0.000       
     404        8.8312         0.000       
     403        8.7913         0.000       
     402        8.7190         0.000       
     401        8.6954         0.000       
     400        8.5287         0.000       
     399        8.4375         0.000       
     398        8.4107         0.000       
     397        8.3746         0.000       
     396        8.2891         0.000       
     395        8.1601         0.000       
     394        8.1499         0.000       
     393        8.0583         0.000       
     392        8.0348         0.000       
     391        7.9665         0.000       
     390        7.9234         0.000       
     389        7.8524         0.000       
     388        7.8093         0.000       
     387        7.7798         0.000       
     386        7.7187         0.000       
     385        7.6947         0.000       
     384        7.5196         0.000       
     383        7.4749         0.000       
     382        7.4140         0.000       
     381        7.2902         0.000       
     380        7.2756         0.000       
     379        7.2293         0.000       
     378        7.1438         0.000       
     377        7.1129         0.000       
     376        7.0750         0.000       
     375        6.9987         0.000       
     374        6.9394         0.000       
     373        6.8624         0.000       
     372        6.7376         0.000       
     371        6.7206         0.000       
     370        6.6759         0.000       
     369        6.6228         0.000       
     368        6.5738         0.000       
     367        6.4954         0.000       
     366        6.4558         0.000       
     365        6.4474         0.000       
     364        6.3890         0.000       
     363        6.3221         0.000       
     362        6.2597         0.000       
     361        6.2198         0.000       
     360        6.2021         0.000       
     359        6.1351         0.000       
     358        6.0686         0.000       
     357        6.0096         0.000       
     356        5.9830         0.000       
     355        5.9449         0.000       
     354        5.9002         0.000       
     353        5.8504         0.000       
     352        5.7456         0.000       
     351        5.7089         0.000       
     350        5.6668         0.000       
     349        5.6078         0.000       
     348        5.5788         0.000       
     347        5.5060         0.000       
     346        5.4866         0.000       
     345        5.4414         0.000       
     344        5.4057         0.000       
     343        5.2529         0.000       
     342        5.2339         0.000       
     341        5.0069         0.000       
     340        4.9637         0.000       
     339        4.8904         0.000       
     338        4.8542         0.000       
     337        4.8336         0.000       
     336        4.7846         0.000       
     335        4.6635         0.000       
     334        4.5349         0.000       
     333        4.4369         0.000       
     332        4.3556         0.000       
     331        4.2552         0.000       
     330        4.1981         0.000       
     329        4.1091         0.000       
     328        3.9746         0.000       
     327        3.9396         0.000       
     326        3.8525         0.000       
     325        3.8064         0.000       
     324        3.7954         0.000       
     323        3.7172         0.000       
     322        3.6421         0.000       
     321        3.5709         0.000       
     320        3.4442         0.000       
     319        3.3551         0.000       
     318        3.3021         0.000       
     317        3.2974         0.000       
     316        3.2433         0.000       
     315        3.1964         0.000       
     314        3.1079         0.000       
     313        3.0516         0.000       
     312        3.0293         0.000       
     311        2.9713         0.000       
     310        2.9082         0.000       
     309        2.8078         0.000       
     308        2.7921         0.000       
     307        2.7473         0.000       
     306        2.6421         0.000       
     305        2.5842         0.000       
     304        2.5122         0.000       
     303        2.4788         0.000       
     302        2.3980         0.000       
     301        2.3310         0.000       
     300        2.3125         0.000       
     299        2.2285         0.000       
     298        2.1287         0.000       
     297        2.0809         0.000       
     296        2.0444         0.000       
     295        1.9686         0.000       
     294        1.9315         0.000       
     293        1.8808         0.000       
     292        1.7968         0.000       
     291        1.7196         0.000       
     290        1.6397         0.000       
     289        1.5427         0.000       
     288        1.4244         0.000       
     287        1.3366         0.000       
     286        1.2769         0.000       
     285        1.1520         0.000       
     284        1.1030         0.000       
     283        1.0599         0.000       
     282        0.9588         0.000       
     281        0.8229         0.000       
     280        0.7572         0.000       
     279        0.7355         0.000       
     278        0.6397         0.000       
     277        0.5264         0.000       
     276        0.4512         0.000       
     275        0.3521         0.000       
     274        0.2714         0.000       
     273        0.1184         0.000       
     272       -0.0234         0.000       
     271       -0.1126         0.000       
     270       -0.1796         0.000       
     269       -0.2020         0.000       
     268       -0.3873         0.000       
     267       -0.4727         0.000       
     266       -0.4758         0.000       
     265       -0.6040         0.000       
     264       -0.6581         0.000       
     263       -0.7213         0.000       
     262       -1.0057         0.000       
     261       -1.0223         0.000       
     260       -1.1412         0.000       
     259       -1.2088         0.000       
     258       -1.2967         0.000       
     257       -1.3695         0.000 < LUMO
     256       -4.6240         2.000 < HOMO
     255       -6.3598         2.000       
     254       -6.5871         2.000       
     253       -6.7157         2.000       
     252       -6.9142         2.000       
     251       -7.0685         2.000       
     250       -7.1820         2.000       
     249       -7.2585         2.000       
     248       -7.3211         2.000       
     247       -7.3671         2.000       
     246       -7.4480         2.000       
     245       -7.4710         2.000       
     244       -7.5111         2.000       
     243       -7.5738         2.000       
     242       -7.5998         2.000       
     241       -7.7221         2.000       
     240       -7.7639         2.000       
     239       -7.8430         2.000       
     238       -7.9781         2.000       
     237       -8.1291         2.000       
     236       -8.2218         2.000       
     235       -8.4707         2.000       
     234       -8.5881         2.000       
     233       -8.8434         2.000       
     232       -8.9622         2.000       
     231       -9.1414         2.000       
     230       -9.3226         2.000       
     229       -9.3377         2.000       
     228       -9.3870         2.000       
     227       -9.4517         2.000       
     226       -9.5274         2.000       
     225       -9.5819         2.000       
     224       -9.7196         2.000       
     223       -9.7382         2.000       
     222       -9.8012         2.000       
     221       -9.8896         2.000       
     220       -9.9247         2.000       
     219      -10.0290         2.000       
     218      -10.0757         2.000       
     217      -10.1189         2.000       
     216      -10.1727         2.000       
     215      -10.2619         2.000       
     214      -10.3100         2.000       
     213      -10.3903         2.000       
     212      -10.4761         2.000       
     211      -10.5318         2.000       
     210      -10.6296         2.000       
     209      -10.7087         2.000       
     208      -10.8621         2.000       
     207      -10.9754         2.000       
     206      -10.9837         2.000       
     205      -11.1109         2.000       
     204      -11.2688         2.000       
     203      -11.3410         2.000       
     202      -11.4596         2.000       
     201      -11.5243         2.000       
     200      -11.6532         2.000       
     199      -11.7734         2.000       
     198      -11.8312         2.000       
     197      -11.8652         2.000       
     196      -11.9509         2.000       
     195      -12.0274         2.000       
     194      -12.0878         2.000       
     193      -12.1277         2.000       
     192      -12.1398         2.000       
     191      -12.2055         2.000       
     190      -12.2206         2.000       
     189      -12.2430         2.000       
     188      -12.4721         2.000       
     187      -12.4831         2.000       
     186      -12.5080         2.000       
     185      -12.6322         2.000       
     184      -12.6597         2.000       
     183      -12.7895         2.000       
     182      -12.8253         2.000       
     181      -12.8506         2.000       
     180      -12.9279         2.000       
     179      -12.9791         2.000       
     178      -13.0492         2.000       
     177      -13.1042         2.000       
     176      -13.1600         2.000       
     175      -13.2040         2.000       
     174      -13.2276         2.000       
     173      -13.2809         2.000       
     172      -13.2947         2.000       
     171      -13.4529         2.000       
     170      -13.4967         2.000       
     169      -13.5334         2.000       
     168      -13.5843         2.000       
     167      -13.8826         2.000       
     166      -13.9203         2.000       
     165      -14.0382         2.000       
     164      -14.2024         2.000       
     163      -14.3288         2.000       
     162      -14.4735         2.000       
     161      -14.5118         2.000       
     160      -14.6940         2.000       
     159      -14.7513         2.000       
     158      -14.9173         2.000       
     157      -14.9534         2.000       
     156      -15.0037         2.000       
     155      -15.2712         2.000       
     154      -15.4067         2.000       
     153      -15.8817         2.000       
     152      -16.0052         2.000       
     151      -16.1587         2.000       
     150      -16.1803         2.000       
     149      -16.2333         2.000       
     148      -16.6032         2.000       
     147      -16.9216         2.000       
     146      -16.9746         2.000       
     145      -17.0618         2.000       
     144      -17.0859         2.000       
     143      -17.1761         2.000       
     142      -17.2534         2.000       
     141      -17.3376         2.000       
     140      -17.3501         2.000       
     139      -17.3983         2.000       
     138      -17.4569         2.000       
     137      -17.4919         2.000       
     136      -17.8882         2.000       
     135      -18.5962         2.000       
     134      -18.6367         2.000       
     133      -18.7590         2.000       
     132      -18.9080         2.000       
     131      -19.7598         2.000       
     130      -20.3481         2.000       
     129      -20.6895         2.000       
     128      -20.9550         2.000       
     127      -20.9991         2.000       
     126      -21.0721         2.000       
     125      -21.2231         2.000       
     124      -21.2399         2.000       
     123      -21.2582         2.000       
     122      -21.2890         2.000       
     121      -21.3136         2.000       
     120      -21.3544         2.000       
     119      -21.4212         2.000       
     118      -21.7534         2.000       
     117      -21.9977         2.000       
     116      -22.1278         2.000       
     115      -22.3538         2.000       
     114      -22.5098         2.000       
     113      -24.1088         2.000       
     112      -24.1454         2.000       
     111      -24.2557         2.000       
     110      -24.3761         2.000       
     109      -24.3903         2.000       
     108      -24.5223         2.000       
     107      -24.5325         2.000       
     106      -24.7576         2.000       
     105      -24.9615         2.000       
     104      -26.9441         2.000       
     103      -28.2546         2.000       
     102      -30.1241         2.000       
     101      -31.2640         2.000       
     100      -34.8746         2.000       
      99      -35.0140         2.000       
      98      -35.2627         2.000       
      97      -35.5218         2.000       
      96      -57.2875         2.000       
      95      -57.8058         2.000       
      94      -57.9809         2.000       
      93      -93.0664         2.000       
      92     -129.3782         2.000       
      91     -129.4721         2.000       
      90     -129.4789         2.000       
      89     -129.6915         2.000       
      88     -129.7775         2.000       
      87     -129.7798         2.000       
      86     -165.9795         2.000       
      85     -165.9935         2.000       
      84     -166.0335         2.000       
      83     -181.2544         2.000       
      82     -181.5579         2.000       
      81     -197.4180         2.000       
      80     -197.4307         2.000       
      79     -197.7166         2.000       
      78     -223.5498         2.000       
      77     -261.0662         2.000       
      76     -278.4616         2.000       
      75     -278.5334         2.000       
      74     -278.5374         2.000       
      73     -278.5688         2.000       
      72     -278.6110         2.000       
      71     -278.6246         2.000       
      70     -278.6290         2.000       
      69     -278.7503         2.000       
      68     -278.7945         2.000       
      67     -278.8091         2.000       
      66     -278.8108         2.000       
      65     -278.8121         2.000       
      64     -278.8173         2.000       
      63     -278.8287         2.000       
      62     -278.8306         2.000       
      61     -278.8439         2.000       
      60     -278.8514         2.000       
      59     -278.8652         2.000       
      58     -278.8701         2.000       
      57     -278.8739         2.000       
      56     -278.8753         2.000       
      55     -278.8759         2.000       
      54     -278.8799         2.000       
      53     -278.8826         2.000       
      52     -278.8854         2.000       
      51     -278.9005         2.000       
      50     -278.9006         2.000       
      49     -278.9049         2.000       
      48     -278.9065         2.000       
      47     -278.9225         2.000       
      46     -278.9380         2.000       
      45     -278.9879         2.000       
      44     -279.0046         2.000       
      43     -279.0638         2.000       
      42     -279.1356         2.000       
      41     -279.2035         2.000       
      40     -279.2528         2.000       
      39     -279.2809         2.000       
      38     -279.2925         2.000       
      37     -279.3409         2.000       
      36     -279.4424         2.000       
      35     -279.8283         2.000       
      34     -279.9443         2.000       
      33     -279.9713         2.000       
      32     -280.3006         2.000       
      31     -280.7386         2.000       
      30     -281.3793         2.000       
      29     -281.4290         2.000       
      28     -281.4471         2.000       
      27     -281.4779         2.000       
      26     -337.3398         2.000       
      25     -337.3514         2.000       
      24     -337.4189         2.000       
      23     -337.4936         2.000       
      22     -337.5034         2.000       
      21     -393.3493         2.000       
      20     -522.9794         2.000       
      19     -523.0247         2.000       
      18     -523.9288         2.000       
      17     -531.1923         2.000       
      16     -531.3466         2.000       
      15     -531.4508         2.000       
      14     -653.1672         2.000       
      13     -675.3833         2.000       
      12     -675.5616         2.000       
      11     -675.6279         2.000       
      10     -675.6891         2.000       
       9    -2107.3219         2.000       
       8    -2107.6489         2.000       
       7    -2435.3216         2.000       
       6    -2777.2953         2.000       
       5    -3189.3104         2.000       
       4    -3189.3817         2.000       
       3    -3189.4170         2.000       
       2    -3560.3270         2.000       
       1   -24223.5267         2.000       

AMS application finished. Exiting.
NORMAL TERMINATION
     Total cpu time:    7146.76
  Total system time:      62.96
 Total elapsed time:    7232.07
NORMAL TERMINATION
