

 Parallel Execution: Process Information
 ==============================================================================
 Rank   Node Name                              NodeID   MyNodeRank  NodeMaster
    0   eu-g5-011-3                               0          0          0
    1   eu-g5-011-3                               1          0          1
    2   eu-g5-011-3                               0          1         -1
    3   eu-g5-011-3                               1          1         -1
    4   eu-g5-011-3                               2          0          2
    5   eu-g5-011-3                               3          0          3
    6   eu-g5-011-3                               2          1         -1
    7   eu-g5-011-3                               3          1         -1
    8   eu-g5-011-3                               2          2         -1
    9   eu-g5-011-3                               4          0          4
   10   eu-g5-011-3                               2          3         -1
   11   eu-g5-011-3                               4          1         -1
   12   eu-g5-011-3                               4          2         -1
   13   eu-g5-011-3                               4          3         -1
   14   eu-g5-011-3                               4          4         -1
   15   eu-g5-011-3                               4          5         -1
 ==============================================================================


May use up to 30549MB of RAM as shared memory on node 0
May use up to 30759MB of RAM as shared memory on node 3
May use up to 30759MB of RAM as shared memory on node 1
May use up to 29775MB of RAM as shared memory on node 4
May use up to 30754MB of RAM as shared memory on node 2

 *******************************************************************************
 *                                                                             *
 *  --------------------------------                                           *
 *   Amsterdam Modeling Suite (AMS)              2023.101                      *
 *  --------------------------------                                           *
 *                                               r111868 2023-03-31            *
 *                                                                             *
 *                                                                             *
 *                              =================                              *
 *                              |               |                              *
 *                              |     A M S     |                              *
 *                              |               |                              *
 *                              =================                              *
 *                                                                             *
 *                                                                             *
 *   Online information and documentation:  https://www.scm.com/support/       *
 *   E-mail:  support@scm.com   info@scm.com                                   *
 *                                                                             *
 *   Scientific publications using AMS results must be properly referenced     *
 *   See the User Manuals (or the web site) for recommended citations          *
 *   The terms and conditions of the End User License Agreement apply to       *
 *   the use of AMS, https://www.scm.com/license-terms/                        *
 *                                                                             *
 ***********************  x86_64_linux_intel / openmpi  ************************
 
 Licensed to: D-CHAB / ETH site license / Zurich / Switzerland 2023-06-23 15:55:12
 SCM User ID: u7035
  
 AMS 2023.101  RunTime: May25-2024 09:19:14  ShM Nodes: 5  Procs: 16

 AMS jobname: ts_dppe
 AMS jobid  : 1915633737

 Start   directory: /cluster/scratch/sroediger/michael/eda/
 Results directory: /cluster/scratch/sroediger/michael/eda/ts_dppe.results/
 Scratch directory: /scratch/amstmp_ts_dppe_kid0.1915633737/


 Communication costs MPI_COMM_WORLD:     10.111 usec per message,   0.0146 usec per 8-byte item
 Communication costs for intra-node:      0.558 usec per message,   0.0017 usec per 8-byte item

 RNG seed: 487737596 2106292137 -1867115660 -1763529396 -1279275880 -1162080303 927339977 -1453964877



                     *************************************************************************
                     *  ADF 2023.101  RunTime: May25-2024 09:19:14  ShM Nodes: 5  Procs: 16  *
                     *************************************************************************
  

       ****************************
       * SINGLE POINT CALCULATION *
       ****************************
 
--------
Geometry
--------
Formula: C40H32ClF4NO3P2PdS
Atoms
  Index Symbol   x (angstrom)   y (angstrom)   z (angstrom)
      1      C    -1.25097900     0.68684700     1.21088700       region=pdsubstrate adf.f=pdsubstrate
      2      C    -1.82653900     0.26381900     2.43654300       region=pdsubstrate adf.f=pdsubstrate
      3      H    -1.23604000    -0.31422700     3.14988400       region=pdsubstrate adf.f=pdsubstrate
      4      C    -3.17138300     0.49745600     2.66037700       region=pdsubstrate adf.f=pdsubstrate
      5      H    -3.65876500     0.10149500     3.55414200       region=pdsubstrate adf.f=pdsubstrate
      6      C    -3.96901700     1.20026300     1.73276800       region=pdsubstrate adf.f=pdsubstrate
      7      C    -3.37278100     1.77468900     0.61358300       region=pdsubstrate adf.f=pdsubstrate
      8      H    -3.93021600     2.41673000    -0.06723600       region=pdsubstrate adf.f=pdsubstrate
      9      C    -2.00206100     1.57191600     0.38327400       region=pdsubstrate adf.f=pdsubstrate
     10      C    -1.13549100     2.29446600    -0.51391100       region=pdsubstrate adf.f=pdsubstrate
     11      C    -1.44217600     2.97607500    -1.69152000       region=pdsubstrate adf.f=pdsubstrate
     12      C    -0.43586700     3.55361100    -2.45289000       region=pdsubstrate adf.f=pdsubstrate
     13      C     0.89515400     3.47466400    -2.03084400       region=pdsubstrate adf.f=pdsubstrate
     14      C     1.23433300     2.80075500    -0.85971500       region=pdsubstrate adf.f=pdsubstrate
     15      C     0.22229000     2.22255900    -0.08741400       region=pdsubstrate adf.f=pdsubstrate
     16      N     0.39094100     1.38772100     1.02837100       region=pdsubstrate adf.f=pdsubstrate
     17      S     1.24564200     1.78753900     2.41253800       region=pdsubstrate adf.f=pdsubstrate
     18      O     1.23989000     0.57288300     3.21736700       region=pdsubstrate adf.f=pdsubstrate
     19      O     2.48255200     2.47982200     2.11037600       region=pdsubstrate adf.f=pdsubstrate
     20      C     0.10655900     2.97793600     3.15318600       region=pdsubstrate adf.f=pdsubstrate
     21     Cl     0.72589900     3.57778600     4.68540200       region=pdsubstrate adf.f=pdsubstrate
     22      H    -0.85393000     2.46445100     3.29905000       region=pdsubstrate adf.f=pdsubstrate
     23      H     0.00517500     3.80425200     2.43643900       region=pdsubstrate adf.f=pdsubstrate
     24      F     2.51167400     2.66806500    -0.56776500       region=pdsubstrate adf.f=pdsubstrate
     25      F     1.84858700     3.98006500    -2.79983600       region=pdsubstrate adf.f=pdsubstrate
     26      F    -0.72137400     4.14158400    -3.60636800       region=pdsubstrate adf.f=pdsubstrate
     27      F    -2.69371000     3.02102000    -2.14504900       region=pdsubstrate adf.f=pdsubstrate
     28      O    -5.29155800     1.28355300     2.03311300       region=pdsubstrate adf.f=pdsubstrate
     29      C    -6.11413200     2.00850200     1.16847100       region=pdsubstrate adf.f=pdsubstrate
     30      H    -6.10296900     1.59323400     0.14371800       region=pdsubstrate adf.f=pdsubstrate
     31      H    -5.82237900     3.07334600     1.11484200       region=pdsubstrate adf.f=pdsubstrate
     32      H    -7.13465900     1.94217700     1.56747300       region=pdsubstrate adf.f=pdsubstrate
     33     Pd     0.16040100    -0.61258700     0.45504300       region=pdsubstrate adf.f=pdsubstrate
     34      P     2.11243900    -1.65361900    -0.40509400       region=ligand adf.f=ligand
     35      P    -1.00269200    -2.28820800    -0.57011600       region=ligand adf.f=ligand
     36      C     0.20633500    -3.63834900    -0.94120200       region=ligand adf.f=ligand
     37      H     0.40865500    -4.14962700     0.01517700       region=ligand adf.f=ligand
     38      H    -0.21748000    -4.37861100    -1.63859800       region=ligand adf.f=ligand
     39      C     1.49028700    -3.02645500    -1.50080500       region=ligand adf.f=ligand
     40      H     1.29598700    -2.57520000    -2.48693800       region=ligand adf.f=ligand
     41      H     2.26571500    -3.79331700    -1.64654700       region=ligand adf.f=ligand
     42      C    -2.45982900    -3.06425800     0.18302300       region=ligand adf.f=ligand
     43      C    -2.56278500    -4.42195600     0.50451700       region=ligand adf.f=ligand
     44      H    -1.75650400    -5.11540300     0.25504100       region=ligand adf.f=ligand
     45      C    -3.70275400    -4.90053300     1.15101700       region=ligand adf.f=ligand
     46      H    -3.77806900    -5.96213100     1.39858900       region=ligand adf.f=ligand
     47      C    -4.74009800    -4.03073900     1.48295800       region=ligand adf.f=ligand
     48      H    -5.62723200    -4.40972900     1.99587300       region=ligand adf.f=ligand
     49      C    -4.64008200    -2.67458400     1.16690800       region=ligand adf.f=ligand
     50      H    -5.43757200    -1.97823900     1.43762100       region=ligand adf.f=ligand
     51      C    -3.50629600    -2.19358100     0.52237800       region=ligand adf.f=ligand
     52      H    -3.42326100    -1.12809300     0.29039500       region=ligand adf.f=ligand
     53      C    -1.60461300    -1.76214300    -2.21742200       region=ligand adf.f=ligand
     54      C    -1.36421900    -0.44869100    -2.63465700       region=ligand adf.f=ligand
     55      H    -0.82090400     0.22598800    -1.96820000       region=ligand adf.f=ligand
     56      C    -1.82746900    -0.00073500    -3.87115400       region=ligand adf.f=ligand
     57      H    -1.65145000     1.03492600    -4.17243900       region=ligand adf.f=ligand
     58      C    -2.53223300    -0.86981900    -4.70106100       region=ligand adf.f=ligand
     59      H    -2.90115200    -0.52282100    -5.66922300       region=ligand adf.f=ligand
     60      C    -2.77883600    -2.18224700    -4.29127900       region=ligand adf.f=ligand
     61      H    -3.33954700    -2.86033100    -4.93916700       region=ligand adf.f=ligand
     62      C    -2.32424200    -2.62639100    -3.05250600       region=ligand adf.f=ligand
     63      H    -2.54454900    -3.64647700    -2.72485100       region=ligand adf.f=ligand
     64      C     3.04632000    -0.55713400    -1.52021100       region=ligand adf.f=ligand
     65      C     2.37712900     0.00005100    -2.62175800       region=ligand adf.f=ligand
     66      H     1.35823100    -0.31399200    -2.86378100       region=ligand adf.f=ligand
     67      C     2.98987200     0.97878700    -3.39700900       region=ligand adf.f=ligand
     68      H     2.45437800     1.41288100    -4.24449600       region=ligand adf.f=ligand
     69      C     4.27405600     1.42132100    -3.07923000       region=ligand adf.f=ligand
     70      H     4.74616300     2.20430800    -3.67656000       region=ligand adf.f=ligand
     71      C     4.94310300     0.87216300    -1.98829900       region=ligand adf.f=ligand
     72      H     5.94593400     1.21971000    -1.72940000       region=ligand adf.f=ligand
     73      C     4.33532900    -0.11096900    -1.20924100       region=ligand adf.f=ligand
     74      H     4.86018100    -0.52109200    -0.34354800       region=ligand adf.f=ligand
     75      C     3.35246900    -2.40655200     0.69481500       region=ligand adf.f=ligand
     76      C     4.31812600    -3.31874100     0.24778900       region=ligand adf.f=ligand
     77      H     4.35340900    -3.61133200    -0.80519100       region=ligand adf.f=ligand
     78      C     5.25009700    -3.84331400     1.13856000       region=ligand adf.f=ligand
     79      H     6.00103000    -4.55418200     0.78533300       region=ligand adf.f=ligand
     80      C     5.22942100    -3.45487700     2.47968700       region=ligand adf.f=ligand
     81      H     5.96340700    -3.86639800     3.17688600       region=ligand adf.f=ligand
     82      C     4.27820800    -2.54089800     2.92760800       region=ligand adf.f=ligand
     83      H     4.26292500    -2.22898100     3.97430400       region=ligand adf.f=ligand
     84      C     3.33752400    -2.01736500     2.04049200       region=ligand adf.f=ligand
     85      H     2.59368000    -1.29390300     2.39057200       region=ligand adf.f=ligand
 
Total System Charge             0.00000
Bonding info available!
 
 
----------------
ADF Engine Input
----------------
 
 Basis
 Type TZP
 Core None
 End
 Fragments
 ligand ./ts_dppe.ligand.results/adf.rkf
 pdsubstrate ./ts_dppe.pdsubstrate.results/adf.rkf
 End
 XC
 Hybrid PBE0
 DISPERSION Grimme3 BJDAMP
 End
 NumericalQuality VeryGood
 

 Title: *** (NO TITLE) ***

 *** adf ***



 ===========================
 A T T A C H E D   F I L E S
 ===========================
  



 ===============================
 M O D E L   P A R A M E T E R S
 ===============================
  
 DENSITY FUNCTIONAL POTENTIAL (scf)
    Hybrid:                            PBE0                                    == Not Default ==

 SPIN  (restricted / unrestr.)
    Molecule:                          Restricted                               
    Fragments:                         Restricted                               

 OTHER ASPECTS
    Relativistic Corrections:          scalar (ZORA,MAPA)                       

    Nuclear Charge Density Model:      Point Charge Nuclei                      
    Core Treatment:                    Frozen Orbital(s)                        

    Hyperfine or Zeeman Interaction:   ---                                      

 Settings for Grimme D3 dispersion correction

      damping                        BJ
      s6                          1.000
      s8                          1.218
      a1                          0.414
      a2                          4.859

 Other (technical) parameters

      alpha                      14.000
      version                         4
 


 Fragment File(s)
 ----------------
 pdsubstrate:
         file : ./ts_dppe.pdsubstrate.results/adf.rkf
         jobid: 110814472
         title: *** adf ***
 ligand:
         file : ./ts_dppe.ligand.results/adf.rkf
         jobid: 1068992701
         title: *** adf ***



 ===============
 G E O M E T R Y  ***  3D  Molecule  ***
 ===============
  

 ATOMS
 =====                            X Y Z                    CHARGE
                                (Angstrom)             Nucl     +Core       At.Mass
                       --------------------------    ----------------       -------
    1  C              -1.2510    0.6868    1.2109      6.00      6.00       12.0000
    2  C              -1.8265    0.2638    2.4365      6.00      6.00       12.0000
    3  H              -1.2360   -0.3142    3.1499      1.00      1.00        1.0078
    4  C              -3.1714    0.4975    2.6604      6.00      6.00       12.0000
    5  H              -3.6588    0.1015    3.5541      1.00      1.00        1.0078
    6  C              -3.9690    1.2003    1.7328      6.00      6.00       12.0000
    7  C              -3.3728    1.7747    0.6136      6.00      6.00       12.0000
    8  H              -3.9302    2.4167   -0.0672      1.00      1.00        1.0078
    9  C              -2.0021    1.5719    0.3833      6.00      6.00       12.0000
   10  C              -1.1355    2.2945   -0.5139      6.00      6.00       12.0000
   11  C              -1.4422    2.9761   -1.6915      6.00      6.00       12.0000
   12  C              -0.4359    3.5536   -2.4529      6.00      6.00       12.0000
   13  C               0.8952    3.4747   -2.0308      6.00      6.00       12.0000
   14  C               1.2343    2.8008   -0.8597      6.00      6.00       12.0000
   15  C               0.2223    2.2226   -0.0874      6.00      6.00       12.0000
   16  N               0.3909    1.3877    1.0284      7.00      7.00       14.0031
   17  S               1.2456    1.7875    2.4125     16.00     16.00       31.9721
   18  O               1.2399    0.5729    3.2174      8.00      8.00       15.9949
   19  O               2.4826    2.4798    2.1104      8.00      8.00       15.9949
   20  C               0.1066    2.9779    3.1532      6.00      6.00       12.0000
   21  Cl              0.7259    3.5778    4.6854     17.00     17.00       34.9689
   22  H              -0.8539    2.4645    3.2990      1.00      1.00        1.0078
   23  H               0.0052    3.8043    2.4364      1.00      1.00        1.0078
   24  F               2.5117    2.6681   -0.5678      9.00      9.00       18.9984
   25  F               1.8486    3.9801   -2.7998      9.00      9.00       18.9984
   26  F              -0.7214    4.1416   -3.6064      9.00      9.00       18.9984
   27  F              -2.6937    3.0210   -2.1450      9.00      9.00       18.9984
   28  O              -5.2916    1.2836    2.0331      8.00      8.00       15.9949
   29  C              -6.1141    2.0085    1.1685      6.00      6.00       12.0000
   30  H              -6.1030    1.5932    0.1437      1.00      1.00        1.0078
   31  H              -5.8224    3.0733    1.1148      1.00      1.00        1.0078
   32  H              -7.1347    1.9422    1.5675      1.00      1.00        1.0078
   33  Pd              0.1604   -0.6126    0.4550     46.00     46.00      105.9035
   34  P               2.1124   -1.6536   -0.4051     15.00     15.00       30.9738
   35  P              -1.0027   -2.2882   -0.5701     15.00     15.00       30.9738
   36  C               0.2063   -3.6383   -0.9412      6.00      6.00       12.0000
   37  H               0.4087   -4.1496    0.0152      1.00      1.00        1.0078
   38  H              -0.2175   -4.3786   -1.6386      1.00      1.00        1.0078
   39  C               1.4903   -3.0265   -1.5008      6.00      6.00       12.0000
   40  H               1.2960   -2.5752   -2.4869      1.00      1.00        1.0078
   41  H               2.2657   -3.7933   -1.6465      1.00      1.00        1.0078
   42  C              -2.4598   -3.0643    0.1830      6.00      6.00       12.0000
   43  C              -2.5628   -4.4220    0.5045      6.00      6.00       12.0000
   44  H              -1.7565   -5.1154    0.2550      1.00      1.00        1.0078
   45  C              -3.7028   -4.9005    1.1510      6.00      6.00       12.0000
   46  H              -3.7781   -5.9621    1.3986      1.00      1.00        1.0078
   47  C              -4.7401   -4.0307    1.4830      6.00      6.00       12.0000
   48  H              -5.6272   -4.4097    1.9959      1.00      1.00        1.0078
   49  C              -4.6401   -2.6746    1.1669      6.00      6.00       12.0000
   50  H              -5.4376   -1.9782    1.4376      1.00      1.00        1.0078
   51  C              -3.5063   -2.1936    0.5224      6.00      6.00       12.0000
   52  H              -3.4233   -1.1281    0.2904      1.00      1.00        1.0078
   53  C              -1.6046   -1.7621   -2.2174      6.00      6.00       12.0000
   54  C              -1.3642   -0.4487   -2.6347      6.00      6.00       12.0000
   55  H              -0.8209    0.2260   -1.9682      1.00      1.00        1.0078
   56  C              -1.8275   -0.0007   -3.8712      6.00      6.00       12.0000
   57  H              -1.6514    1.0349   -4.1724      1.00      1.00        1.0078
   58  C              -2.5322   -0.8698   -4.7011      6.00      6.00       12.0000
   59  H              -2.9012   -0.5228   -5.6692      1.00      1.00        1.0078
   60  C              -2.7788   -2.1822   -4.2913      6.00      6.00       12.0000
   61  H              -3.3395   -2.8603   -4.9392      1.00      1.00        1.0078
   62  C              -2.3242   -2.6264   -3.0525      6.00      6.00       12.0000
   63  H              -2.5445   -3.6465   -2.7249      1.00      1.00        1.0078
   64  C               3.0463   -0.5571   -1.5202      6.00      6.00       12.0000
   65  C               2.3771    0.0001   -2.6218      6.00      6.00       12.0000
   66  H               1.3582   -0.3140   -2.8638      1.00      1.00        1.0078
   67  C               2.9899    0.9788   -3.3970      6.00      6.00       12.0000
   68  H               2.4544    1.4129   -4.2445      1.00      1.00        1.0078
   69  C               4.2741    1.4213   -3.0792      6.00      6.00       12.0000
   70  H               4.7462    2.2043   -3.6766      1.00      1.00        1.0078
   71  C               4.9431    0.8722   -1.9883      6.00      6.00       12.0000
   72  H               5.9459    1.2197   -1.7294      1.00      1.00        1.0078
   73  C               4.3353   -0.1110   -1.2092      6.00      6.00       12.0000
   74  H               4.8602   -0.5211   -0.3435      1.00      1.00        1.0078
   75  C               3.3525   -2.4066    0.6948      6.00      6.00       12.0000
   76  C               4.3181   -3.3187    0.2478      6.00      6.00       12.0000
   77  H               4.3534   -3.6113   -0.8052      1.00      1.00        1.0078
   78  C               5.2501   -3.8433    1.1386      6.00      6.00       12.0000
   79  H               6.0010   -4.5542    0.7853      1.00      1.00        1.0078
   80  C               5.2294   -3.4549    2.4797      6.00      6.00       12.0000
   81  H               5.9634   -3.8664    3.1769      1.00      1.00        1.0078
   82  C               4.2782   -2.5409    2.9276      6.00      6.00       12.0000
   83  H               4.2629   -2.2290    3.9743      1.00      1.00        1.0078
   84  C               3.3375   -2.0174    2.0405      6.00      6.00       12.0000
   85  H               2.5937   -1.2939    2.3906      1.00      1.00        1.0078


 FRAGMENTS
 =========                                     Atoms in this Fragment     Cart. coord.s (Angstrom)
                                               -------------------------------------------------------
    1  pdsubstrate                                       1  C           -1.2510    0.6868    1.2109
                                                         2  C           -1.8265    0.2638    2.4365
                                                         4  C           -3.1714    0.4975    2.6604
                                                         6  C           -3.9690    1.2003    1.7328
                                                         7  C           -3.3728    1.7747    0.6136
                                                         9  C           -2.0021    1.5719    0.3833
                                                        10  C           -1.1355    2.2945   -0.5139
                                                        11  C           -1.4422    2.9761   -1.6915
                                                        12  C           -0.4359    3.5536   -2.4529
                                                        13  C            0.8952    3.4747   -2.0308
                                                        14  C            1.2343    2.8008   -0.8597
                                                        15  C            0.2223    2.2226   -0.0874
                                                        20  C            0.1066    2.9779    3.1532
                                                        29  C           -6.1141    2.0085    1.1685
                                                         3  H           -1.2360   -0.3142    3.1499
                                                         5  H           -3.6588    0.1015    3.5541
                                                         8  H           -3.9302    2.4167   -0.0672
                                                        22  H           -0.8539    2.4645    3.2990
                                                        23  H            0.0052    3.8043    2.4364
                                                        30  H           -6.1030    1.5932    0.1437
                                                        31  H           -5.8224    3.0733    1.1148
                                                        32  H           -7.1347    1.9422    1.5675
                                                        16  N            0.3909    1.3877    1.0284
                                                        17  S            1.2456    1.7875    2.4125
                                                        18  O            1.2399    0.5729    3.2174
                                                        19  O            2.4826    2.4798    2.1104
                                                        28  O           -5.2916    1.2836    2.0331
                                                        21  Cl           0.7259    3.5778    4.6854
                                                        24  F            2.5117    2.6681   -0.5678
                                                        25  F            1.8486    3.9801   -2.7998
                                                        26  F           -0.7214    4.1416   -3.6064
                                                        27  F           -2.6937    3.0210   -2.1450
                                                        33  Pd           0.1604   -0.6126    0.4550
    2  ligand                                           53  C           -1.6046   -1.7621   -2.2174
                                                        54  C           -1.3642   -0.4487   -2.6347
                                                        56  C           -1.8275   -0.0007   -3.8712
                                                        58  C           -2.5322   -0.8698   -4.7011
                                                        60  C           -2.7788   -2.1822   -4.2913
                                                        62  C           -2.3242   -2.6264   -3.0525
                                                        64  C            3.0463   -0.5571   -1.5202
                                                        65  C            2.3771    0.0001   -2.6218
                                                        67  C            2.9899    0.9788   -3.3970
                                                        69  C            4.2741    1.4213   -3.0792
                                                        71  C            4.9431    0.8722   -1.9883
                                                        73  C            4.3353   -0.1110   -1.2092
                                                        75  C            3.3525   -2.4066    0.6948
                                                        76  C            4.3181   -3.3187    0.2478
                                                        78  C            5.2501   -3.8433    1.1386
                                                        80  C            5.2294   -3.4549    2.4797
                                                        82  C            4.2782   -2.5409    2.9276
                                                        84  C            3.3375   -2.0174    2.0405
                                                        36  C            0.2063   -3.6383   -0.9412
                                                        39  C            1.4903   -3.0265   -1.5008
                                                        42  C           -2.4598   -3.0643    0.1830
                                                        43  C           -2.5628   -4.4220    0.5045
                                                        45  C           -3.7028   -4.9005    1.1510
                                                        47  C           -4.7401   -4.0307    1.4830
                                                        49  C           -4.6401   -2.6746    1.1669
                                                        51  C           -3.5063   -2.1936    0.5224
                                                        55  H           -0.8209    0.2260   -1.9682
                                                        57  H           -1.6514    1.0349   -4.1724
                                                        59  H           -2.9012   -0.5228   -5.6692
                                                        61  H           -3.3395   -2.8603   -4.9392
                                                        63  H           -2.5445   -3.6465   -2.7249
                                                        66  H            1.3582   -0.3140   -2.8638
                                                        68  H            2.4544    1.4129   -4.2445
                                                        70  H            4.7462    2.2043   -3.6766
                                                        72  H            5.9459    1.2197   -1.7294
                                                        74  H            4.8602   -0.5211   -0.3435
                                                        77  H            4.3534   -3.6113   -0.8052
                                                        79  H            6.0010   -4.5542    0.7853
                                                        81  H            5.9634   -3.8664    3.1769
                                                        83  H            4.2629   -2.2290    3.9743
                                                        85  H            2.5937   -1.2939    2.3906
                                                        37  H            0.4087   -4.1496    0.0152
                                                        38  H           -0.2175   -4.3786   -1.6386
                                                        40  H            1.2960   -2.5752   -2.4869
                                                        41  H            2.2657   -3.7933   -1.6465
                                                        44  H           -1.7565   -5.1154    0.2550
                                                        46  H           -3.7781   -5.9621    1.3986
                                                        48  H           -5.6272   -4.4097    1.9959
                                                        50  H           -5.4376   -1.9782    1.4376
                                                        52  H           -3.4233   -1.1281    0.2904
                                                        34  P            2.1124   -1.6536   -0.4051
                                                        35  P           -1.0027   -2.2882   -0.5701



 =====================================
 S Y M M E T R Y ,   E L E C T R O N S
 =====================================
  
 Symmetry: NOSYM

 Irreducible Representations, including subspecies
 -------------------------------------------------
 A


 Configuration of Valence Electrons
 ==================================
 ( determined in the SCF procedure )

 Total:   448

 Net Charge: 0 (Nuclei minus Electrons)

 Aufbau principle for MO occupations will be applied through SCF cycle no.     150
 Thereafter, the program will assign electrons to MOs that are spatially
 similar to the occupied MOs in a "reference" cycle ("KeepOrbitals").
 The reference cycle is always the PREVIOUS cycle: it will evolve with
 the SCF procedure.
1
 ***************************************************************************************************



                                      ****************************************
                                      *  B U I L D : (Fragments, Functions)  *
                                      ****************************************
  

 The individual fragments are copies of the corresponding 'Master' fragments defined on the fragment files.
 However, they may have been rotated (and translated) with respect to the Master. The local coordinate axes
 of each fragment (which define for instance the spatial orientation in the current molecule of a fragment
 P:x orbital) are not necessarily those of the molecule.
 The local frame (if different from the molecular one) is printed to enable an interpretation of the expan-
 sion of an MO in Fragment Orbitals.



                                         *********************************
                                         *  Fragment Type : pdsubstrate  *
                                         *********************************
  

 Fragment no.    1   (in the list of all fragments)
 -----------------
 The local coordinate frame is identical to the molecular frame.

 Check Atomic Coordinates:

                  Master (on file)          After Computed Tranformation               As specified on Input
           ----------------------------     ----------------------------     ---------------------------------
     1)    -1.25098   0.68685   1.21089     -1.25098   0.68685   1.21089       1  -1.25098   0.68685   1.21089
     2)    -1.82654   0.26382   2.43654     -1.82654   0.26382   2.43654       2  -1.82654   0.26382   2.43654
     3)    -3.17138   0.49746   2.66038     -3.17138   0.49746   2.66038       4  -3.17138   0.49746   2.66038
     4)    -3.96902   1.20026   1.73277     -3.96902   1.20026   1.73277       6  -3.96902   1.20026   1.73277
     5)    -3.37278   1.77469   0.61358     -3.37278   1.77469   0.61358       7  -3.37278   1.77469   0.61358
     6)    -2.00206   1.57192   0.38327     -2.00206   1.57192   0.38327       9  -2.00206   1.57192   0.38327
     7)    -1.13549   2.29447  -0.51391     -1.13549   2.29447  -0.51391      10  -1.13549   2.29447  -0.51391
     8)    -1.44218   2.97607  -1.69152     -1.44218   2.97607  -1.69152      11  -1.44218   2.97607  -1.69152
     9)    -0.43587   3.55361  -2.45289     -0.43587   3.55361  -2.45289      12  -0.43587   3.55361  -2.45289
    10)     0.89515   3.47466  -2.03084      0.89515   3.47466  -2.03084      13   0.89515   3.47466  -2.03084
    11)     1.23433   2.80076  -0.85972      1.23433   2.80076  -0.85972      14   1.23433   2.80076  -0.85972
    12)     0.22229   2.22256  -0.08741      0.22229   2.22256  -0.08741      15   0.22229   2.22256  -0.08741
    13)     0.10656   2.97794   3.15319      0.10656   2.97794   3.15319      20   0.10656   2.97794   3.15319
    14)    -6.11413   2.00850   1.16847     -6.11413   2.00850   1.16847      29  -6.11413   2.00850   1.16847
    15)    -1.23604  -0.31423   3.14988     -1.23604  -0.31423   3.14988       3  -1.23604  -0.31423   3.14988
    16)    -3.65876   0.10150   3.55414     -3.65876   0.10150   3.55414       5  -3.65876   0.10150   3.55414
    17)    -3.93022   2.41673  -0.06724     -3.93022   2.41673  -0.06724       8  -3.93022   2.41673  -0.06724
    18)    -0.85393   2.46445   3.29905     -0.85393   2.46445   3.29905      22  -0.85393   2.46445   3.29905
    19)     0.00517   3.80425   2.43644      0.00517   3.80425   2.43644      23   0.00517   3.80425   2.43644
    20)    -6.10297   1.59323   0.14372     -6.10297   1.59323   0.14372      30  -6.10297   1.59323   0.14372
    21)    -5.82238   3.07335   1.11484     -5.82238   3.07335   1.11484      31  -5.82238   3.07335   1.11484
    22)    -7.13466   1.94218   1.56747     -7.13466   1.94218   1.56747      32  -7.13466   1.94218   1.56747
    23)     0.39094   1.38772   1.02837      0.39094   1.38772   1.02837      16   0.39094   1.38772   1.02837
    24)     1.24564   1.78754   2.41254      1.24564   1.78754   2.41254      17   1.24564   1.78754   2.41254
    25)     1.23989   0.57288   3.21737      1.23989   0.57288   3.21737      18   1.23989   0.57288   3.21737
    26)     2.48255   2.47982   2.11038      2.48255   2.47982   2.11038      19   2.48255   2.47982   2.11038
    27)    -5.29156   1.28355   2.03311     -5.29156   1.28355   2.03311      28  -5.29156   1.28355   2.03311
    28)     0.72590   3.57779   4.68540      0.72590   3.57779   4.68540      21   0.72590   3.57779   4.68540
    29)     2.51167   2.66806  -0.56776      2.51167   2.66806  -0.56776      24   2.51167   2.66806  -0.56776
    30)     1.84859   3.98007  -2.79984      1.84859   3.98007  -2.79984      25   1.84859   3.98007  -2.79984
    31)    -0.72137   4.14158  -3.60637     -0.72137   4.14158  -3.60637      26  -0.72137   4.14158  -3.60637
    32)    -2.69371   3.02102  -2.14505     -2.69371   3.02102  -2.14505      27  -2.69371   3.02102  -2.14505
    33)     0.16040  -0.61259   0.45504      0.16040  -0.61259   0.45504      33   0.16040  -0.61259   0.45504



                                            ****************************
                                            *  Fragment Type : ligand  *
                                            ****************************
  

 Fragment no.    2   (in the list of all fragments)
 -----------------
 The local coordinate frame is identical to the molecular frame.

 Check Atomic Coordinates:

                  Master (on file)          After Computed Tranformation               As specified on Input
           ----------------------------     ----------------------------     ---------------------------------
     1)    -1.60461  -1.76214  -2.21742     -1.60461  -1.76214  -2.21742      53  -1.60461  -1.76214  -2.21742
     2)    -1.36422  -0.44869  -2.63466     -1.36422  -0.44869  -2.63466      54  -1.36422  -0.44869  -2.63466
     3)    -1.82747  -0.00073  -3.87115     -1.82747  -0.00073  -3.87115      56  -1.82747  -0.00073  -3.87115
     4)    -2.53223  -0.86982  -4.70106     -2.53223  -0.86982  -4.70106      58  -2.53223  -0.86982  -4.70106
     5)    -2.77884  -2.18225  -4.29128     -2.77884  -2.18225  -4.29128      60  -2.77884  -2.18225  -4.29128
     6)    -2.32424  -2.62639  -3.05251     -2.32424  -2.62639  -3.05251      62  -2.32424  -2.62639  -3.05251
     7)     3.04632  -0.55713  -1.52021      3.04632  -0.55713  -1.52021      64   3.04632  -0.55713  -1.52021
     8)     2.37713   0.00005  -2.62176      2.37713   0.00005  -2.62176      65   2.37713   0.00005  -2.62176
     9)     2.98987   0.97879  -3.39701      2.98987   0.97879  -3.39701      67   2.98987   0.97879  -3.39701
    10)     4.27406   1.42132  -3.07923      4.27406   1.42132  -3.07923      69   4.27406   1.42132  -3.07923
    11)     4.94310   0.87216  -1.98830      4.94310   0.87216  -1.98830      71   4.94310   0.87216  -1.98830
    12)     4.33533  -0.11097  -1.20924      4.33533  -0.11097  -1.20924      73   4.33533  -0.11097  -1.20924
    13)     3.35247  -2.40655   0.69481      3.35247  -2.40655   0.69481      75   3.35247  -2.40655   0.69481
    14)     4.31813  -3.31874   0.24779      4.31813  -3.31874   0.24779      76   4.31813  -3.31874   0.24779
    15)     5.25010  -3.84331   1.13856      5.25010  -3.84331   1.13856      78   5.25010  -3.84331   1.13856
    16)     5.22942  -3.45488   2.47969      5.22942  -3.45488   2.47969      80   5.22942  -3.45488   2.47969
    17)     4.27821  -2.54090   2.92761      4.27821  -2.54090   2.92761      82   4.27821  -2.54090   2.92761
    18)     3.33752  -2.01736   2.04049      3.33752  -2.01736   2.04049      84   3.33752  -2.01736   2.04049
    19)     0.20633  -3.63835  -0.94120      0.20633  -3.63835  -0.94120      36   0.20633  -3.63835  -0.94120
    20)     1.49029  -3.02645  -1.50080      1.49029  -3.02645  -1.50080      39   1.49029  -3.02645  -1.50080
    21)    -2.45983  -3.06426   0.18302     -2.45983  -3.06426   0.18302      42  -2.45983  -3.06426   0.18302
    22)    -2.56278  -4.42196   0.50452     -2.56278  -4.42196   0.50452      43  -2.56278  -4.42196   0.50452
    23)    -3.70275  -4.90053   1.15102     -3.70275  -4.90053   1.15102      45  -3.70275  -4.90053   1.15102
    24)    -4.74010  -4.03074   1.48296     -4.74010  -4.03074   1.48296      47  -4.74010  -4.03074   1.48296
    25)    -4.64008  -2.67458   1.16691     -4.64008  -2.67458   1.16691      49  -4.64008  -2.67458   1.16691
    26)    -3.50630  -2.19358   0.52238     -3.50630  -2.19358   0.52238      51  -3.50630  -2.19358   0.52238
    27)    -0.82090   0.22599  -1.96820     -0.82090   0.22599  -1.96820      55  -0.82090   0.22599  -1.96820
    28)    -1.65145   1.03493  -4.17244     -1.65145   1.03493  -4.17244      57  -1.65145   1.03493  -4.17244
    29)    -2.90115  -0.52282  -5.66922     -2.90115  -0.52282  -5.66922      59  -2.90115  -0.52282  -5.66922
    30)    -3.33955  -2.86033  -4.93917     -3.33955  -2.86033  -4.93917      61  -3.33955  -2.86033  -4.93917
    31)    -2.54455  -3.64648  -2.72485     -2.54455  -3.64648  -2.72485      63  -2.54455  -3.64648  -2.72485
    32)     1.35823  -0.31399  -2.86378      1.35823  -0.31399  -2.86378      66   1.35823  -0.31399  -2.86378
    33)     2.45438   1.41288  -4.24450      2.45438   1.41288  -4.24450      68   2.45438   1.41288  -4.24450
    34)     4.74616   2.20431  -3.67656      4.74616   2.20431  -3.67656      70   4.74616   2.20431  -3.67656
    35)     5.94593   1.21971  -1.72940      5.94593   1.21971  -1.72940      72   5.94593   1.21971  -1.72940
    36)     4.86018  -0.52109  -0.34355      4.86018  -0.52109  -0.34355      74   4.86018  -0.52109  -0.34355
    37)     4.35341  -3.61133  -0.80519      4.35341  -3.61133  -0.80519      77   4.35341  -3.61133  -0.80519
    38)     6.00103  -4.55418   0.78533      6.00103  -4.55418   0.78533      79   6.00103  -4.55418   0.78533
    39)     5.96341  -3.86640   3.17689      5.96341  -3.86640   3.17689      81   5.96341  -3.86640   3.17689
    40)     4.26293  -2.22898   3.97430      4.26293  -2.22898   3.97430      83   4.26293  -2.22898   3.97430
    41)     2.59368  -1.29390   2.39057      2.59368  -1.29390   2.39057      85   2.59368  -1.29390   2.39057
    42)     0.40865  -4.14963   0.01518      0.40865  -4.14963   0.01518      37   0.40865  -4.14963   0.01518
    43)    -0.21748  -4.37861  -1.63860     -0.21748  -4.37861  -1.63860      38  -0.21748  -4.37861  -1.63860
    44)     1.29599  -2.57520  -2.48694      1.29599  -2.57520  -2.48694      40   1.29599  -2.57520  -2.48694
    45)     2.26572  -3.79332  -1.64655      2.26572  -3.79332  -1.64655      41   2.26572  -3.79332  -1.64655
    46)    -1.75650  -5.11540   0.25504     -1.75650  -5.11540   0.25504      44  -1.75650  -5.11540   0.25504
    47)    -3.77807  -5.96213   1.39859     -3.77807  -5.96213   1.39859      46  -3.77807  -5.96213   1.39859
    48)    -5.62723  -4.40973   1.99587     -5.62723  -4.40973   1.99587      48  -5.62723  -4.40973   1.99587
    49)    -5.43757  -1.97824   1.43762     -5.43757  -1.97824   1.43762      50  -5.43757  -1.97824   1.43762
    50)    -3.42326  -1.12809   0.29040     -3.42326  -1.12809   0.29040      52  -3.42326  -1.12809   0.29040
    51)     2.11244  -1.65362  -0.40509      2.11244  -1.65362  -0.40509      34   2.11244  -1.65362  -0.40509
    52)    -1.00269  -2.28821  -0.57012     -1.00269  -2.28821  -0.57012      35  -1.00269  -2.28821  -0.57012

 Total nr. of (C)SFOs (summation over all irreps) :  1278

 Specify PRINT SFO in the input file to get a full list

 Nr. of SFOs for ir.rep.           A :  1278



 ================================
 (Slater-type)  F U N C T I O N S  ***  (Basis and Fit)  ***
 ================================
  

 Atom Type    1  (C)
 ==============

 Valence Basis Sets:   9
 -----------------------
   1 S    7.680000
   1 S    5.000000
   2 S    1.280000
   2 S    2.100000
   2 S    4.600000
   2 P    0.820000
   2 P    1.480000
   2 P    2.940000
   3 D    2.200000

 Charge Fitting Sets (for the computation of the Coulomb Potential):  22
 -----------------------------------------------------------------------
   1 S   15.360000
   2 S   17.530000
   2 S   12.070000
   2 S    8.310000
   2 S    5.730000
   3 S    5.780000
   3 S    4.220000
   3 S    3.080000
   3 S    2.250000
   3 S    1.640000
   2 P    9.880000
   2 P    5.800000
   3 P    5.050000
   3 P    3.230000
   3 P    2.060000
   3 D    7.200000
   3 D    4.400000
   3 D    2.690000
   3 D    1.640000
   4 F    5.400000
   4 F    3.550000
   5 G    4.500000

 Atom Type    2  (H)
 ==============

 Valence Basis Sets:   4
 -----------------------
   1 S    0.690000
   1 S    0.920000
   1 S    1.580000
   2 P    1.250000

 Charge Fitting Sets (for the computation of the Coulomb Potential):  11
 -----------------------------------------------------------------------
   1 S    3.160000
   1 S    2.090000
   1 S    1.380000
   2 S    1.500000
   2 P    4.000000
   2 P    2.650000
   2 P    1.750000
   3 D    4.000000
   3 D    2.500000
   4 F    3.000000
   5 G    4.000000

 Atom Type    3  (N)
 ==============

 Valence Basis Sets:   9
 -----------------------
   1 S    8.740000
   1 S    5.900000
   2 S    5.150000
   2 S    2.500000
   2 S    1.500000
   2 P    3.680000
   2 P    1.880000
   2 P    1.000000
   3 D    2.200000

 Charge Fitting Sets (for the computation of the Coulomb Potential):  22
 -----------------------------------------------------------------------
   1 S   17.480000
   2 S   20.150000
   2 S   13.990000
   2 S    9.710000
   2 S    6.740000
   3 S    6.860000
   3 S    5.040000
   3 S    3.700000
   3 S    2.720000
   3 S    2.000000
   2 P   11.320000
   2 P    6.730000
   3 P    5.920000
   3 P    3.820000
   3 P    2.460000
   3 D    8.100000
   3 D    5.080000
   3 D    3.190000
   3 D    2.000000
   4 F    5.800000
   4 F    3.600000
   5 G    4.500000

 Atom Type    4  (S)
 ==============

 Valence Basis Sets:  13
 -----------------------
   1 S   19.400000
   1 S   14.350000
   2 S    5.900000
   2 S    4.250000
   2 P    8.050000
   2 P    4.550000
   3 S    3.450000
   3 S    2.250000
   3 S    1.500000
   3 P    2.650000
   3 P    1.600000
   3 P    1.000000
   3 D    2.100000

 Charge Fitting Sets (for the computation of the Coulomb Potential):  30
 -----------------------------------------------------------------------
   1 S   38.800000
   1 S   23.350000
   2 S   26.020000
   2 S   17.570000
   3 S   17.420000
   3 S   12.500000
   3 S    8.980000
   4 S    8.520000
   4 S    6.360000
   4 S    4.750000
   5 S    4.420000
   5 S    3.390000
   5 S    2.600000
   5 S    2.000000
   2 P   27.450000
   3 P   20.250000
   4 P   14.920000
   4 P    8.780000
   5 P    6.520000
   5 P    4.040000
   5 P    2.500000
   3 D   20.900000
   4 D   14.560000
   4 D    8.130000
   5 D    5.740000
   5 D    3.390000
   5 D    2.000000
   4 F    5.000000
   4 F    3.000000
   5 G    3.620000

 Atom Type    5  (O)
 ==============

 Valence Basis Sets:   9
 -----------------------
   1 S    9.800000
   1 S    6.800000
   2 S    7.580000
   2 S    2.880000
   2 S    1.720000
   2 P    4.080000
   2 P    2.080000
   2 P    1.120000
   3 D    2.000000

 Charge Fitting Sets (for the computation of the Coulomb Potential):  22
 -----------------------------------------------------------------------
   1 S   19.600000
   2 S   22.600000
   2 S   15.680000
   2 S   10.890000
   2 S    7.560000
   3 S    7.690000
   3 S    5.650000
   3 S    4.150000
   3 S    3.050000
   3 S    2.240000
   2 P   12.860000
   2 P    7.680000
   3 P    6.780000
   3 P    4.390000
   3 P    2.840000
   3 D    8.800000
   3 D    5.580000
   3 D    3.530000
   3 D    2.240000
   4 F    6.200000
   4 F    3.700000
   5 G    4.500000

 Atom Type    6  (Cl)
 ==============

 Valence Basis Sets:  13
 -----------------------
   1 S   20.300000
   1 S   15.250000
   2 S    6.250000
   2 S    4.450000
   2 P    8.850000
   2 P    5.050000
   3 S    3.450000
   3 S    2.300000
   3 S    1.600000
   3 P    3.350000
   3 P    2.050000
   3 P    1.200000
   3 D    2.000000

 Charge Fitting Sets (for the computation of the Coulomb Potential):  30
 -----------------------------------------------------------------------
   1 S   40.600000
   1 S   24.830000
   2 S   28.080000
   2 S   19.200000
   3 S   19.250000
   3 S   13.970000
   3 S   10.130000
   4 S    9.710000
   4 S    7.320000
   4 S    5.510000
   5 S    5.170000
   5 S    4.000000
   5 S    3.100000
   5 S    2.400000
   2 P   29.150000
   3 P   21.740000
   4 P   16.160000
   4 P    9.600000
   5 P    7.180000
   5 P    4.480000
   5 P    2.800000
   3 D   21.950000
   4 D   15.750000
   4 D    9.040000
   5 D    6.550000
   5 D    3.960000
   5 D    2.400000
   4 F    5.000000
   4 F    3.000000
   5 G    3.500000

 Atom Type    7  (F)
 ==============

 Valence Basis Sets:   9
 -----------------------
   1 S   10.880000
   1 S    7.700000
   2 S    3.240000
   2 S    1.940000
   2 S    0.740000
   2 P    4.540000
   2 P    2.300000
   2 P    1.240000
   3 D    2.000000

 Charge Fitting Sets (for the computation of the Coulomb Potential):  23
 -----------------------------------------------------------------------
   1 S   21.760000
   2 S   24.390000
   2 S   16.560000
   2 S   11.240000
   2 S    7.630000
   3 S    7.600000
   3 S    5.480000
   3 S    3.950000
   3 S    2.850000
   3 S    2.050000
   3 S    1.480000
   2 P   14.400000
   2 P    7.530000
   3 P    5.900000
   3 P    3.420000
   3 P    1.980000
   3 D    9.700000
   3 D    6.160000
   3 D    3.910000
   3 D    2.480000
   4 F    6.500000
   4 F    3.750000
   5 G    4.500000

 Atom Type    8  (Pd)
 ==============

 Valence Basis Sets:  26
 -----------------------
   1 S  306.000000
   1 S   76.400000
   1 S   45.900000
   2 S   53.800000
   2 S   19.550000
   3 S   10.150000
   3 S    6.650000
   4 S    6.150000
   4 S    3.900000
   5 S    2.500000
   5 S    1.450000
   5 S    0.850000
   2 P   29.100000
   2 P   18.750000
   3 P   11.250000
   3 P    8.100000
   4 P    5.950000
   4 P    3.950000
   4 P    2.700000
   3 D   17.550000
   3 D   10.450000
   3 D    6.900000
   4 D    4.250000
   4 D    2.200000
   4 D    1.100000
   5 P    1.450000

 Charge Fitting Sets (for the computation of the Coulomb Potential):  58
 -----------------------------------------------------------------------
   1 S  612.000000
   1 S  446.101000
   1 S  325.174000
   1 S  237.027000
   1 S  172.774000
   1 S  125.939000
   1 S   91.800000
   1 S   53.670000
   2 S   58.190000
   2 S   38.430000
   3 S   37.300000
   3 S   26.280000
   4 S   24.500000
   4 S   18.000000
   5 S   16.470000
   5 S   12.460000
   6 S   11.300000
   6 S    8.740000
   7 S    7.890000
   7 S    6.210000
   8 S    5.590000
   8 S    4.470000
   8 S    3.570000
   9 S    3.210000
   9 S    2.600000
   9 S    2.100000
   9 S    1.700000
   2 P   64.650000
   3 P   49.410000
   4 P   37.530000
   5 P   28.620000
   6 P   21.980000
   6 P   14.500000
   7 P   11.220000
   7 P    7.620000
   8 P    5.940000
   8 P    4.130000
   9 P    3.240000
   9 P    2.300000
   3 D   56.350000
   4 D   37.260000
   5 D   25.120000
   6 D   17.230000
   6 D   10.190000
   7 D    7.110000
   7 D    4.360000
   8 D    3.090000
   8 D    1.950000
   4 F   47.900000
   5 F   28.270000
   6 F   17.190000
   6 F    9.040000
   7 F    5.640000
   7 F    3.100000
   5 G   20.900000
   6 G    9.980000
   7 G    4.980000
   7 G    2.200000

 Atom Type    9  (C)
 ==============

 Valence Basis Sets:   9
 -----------------------
   1 S    7.680000
   1 S    5.000000
   2 S    1.280000
   2 S    2.100000
   2 S    4.600000
   2 P    0.820000
   2 P    1.480000
   2 P    2.940000
   3 D    2.200000

 Charge Fitting Sets (for the computation of the Coulomb Potential):  22
 -----------------------------------------------------------------------
   1 S   15.360000
   2 S   17.530000
   2 S   12.070000
   2 S    8.310000
   2 S    5.730000
   3 S    5.780000
   3 S    4.220000
   3 S    3.080000
   3 S    2.250000
   3 S    1.640000
   2 P    9.880000
   2 P    5.800000
   3 P    5.050000
   3 P    3.230000
   3 P    2.060000
   3 D    7.200000
   3 D    4.400000
   3 D    2.690000
   3 D    1.640000
   4 F    5.400000
   4 F    3.550000
   5 G    4.500000

 Atom Type   10  (H)
 ==============

 Valence Basis Sets:   4
 -----------------------
   1 S    0.690000
   1 S    0.920000
   1 S    1.580000
   2 P    1.250000

 Charge Fitting Sets (for the computation of the Coulomb Potential):  11
 -----------------------------------------------------------------------
   1 S    3.160000
   1 S    2.090000
   1 S    1.380000
   2 S    1.500000
   2 P    4.000000
   2 P    2.650000
   2 P    1.750000
   3 D    4.000000
   3 D    2.500000
   4 F    3.000000
   5 G    4.000000

 Atom Type   11  (P)
 ==============

 Valence Basis Sets:  13
 -----------------------
   1 S   18.000000
   1 S   13.350000
   2 S    5.600000
   2 S    4.050000
   2 P    7.450000
   2 P    4.100000
   3 S    2.700000
   3 S    1.850000
   3 S    1.300000
   3 P    2.300000
   3 P    1.350000
   3 P    0.850000
   3 D    1.900000

 Charge Fitting Sets (for the computation of the Coulomb Potential):  30
 -----------------------------------------------------------------------
   1 S   36.000000
   1 S   21.450000
   2 S   23.670000
   2 S   15.860000
   3 S   15.600000
   3 S   11.130000
   3 S    7.940000
   4 S    7.490000
   4 S    5.560000
   4 S    4.130000
   5 S    3.810000
   5 S    2.910000
   5 S    2.230000
   5 S    1.700000
   2 P   25.450000
   3 P   18.490000
   4 P   13.440000
   4 P    7.810000
   5 P    5.730000
   5 P    3.510000
   5 P    2.150000
   3 D   19.350000
   4 D   13.230000
   4 D    7.250000
   5 D    5.040000
   5 D    2.930000
   5 D    1.700000
   4 F    5.000000
   4 F    3.000000
   5 G    3.750000


 BAS: List of all Elementary Cartesian Basis Functions
 =====================================================

 The numbering in the list below (to the right of the function characteristics) is referred
 to in print-outs of MO eigenvectors and Mulliken populations in the BAS representation
 (as contrasted to the SFO representation).

 Notes:
 1. The functions are characterized by a polynomial prefactor (powers of x,y,z and r) and
    an exponential decay factor alpha.
 2. Since the basis sets are specific for an atom TYPE, the individual functions occur on
    all atoms of that type.
 3. The word 'Core' in the left margin signals that it is a Core Function (CF) : not a
    degree of freedom in the valence set, but only used to ensure orthogonalization of
    the other valence basis functions on the frozen Core Orbitals.


 (power of) X  Y  Z  R     Alpha  on Atom
            ==========     =====     ==========

 C                                    1    2    3    4    5    6    7    8    9   10   11   12   13   14
                                  ---------------------------------------------------------------------------
            0  0  0  0     7.680      1   21   41   61   81  101  121  141  161  181  201  221  241  261
            0  0  0  0     5.000      2   22   42   62   82  102  122  142  162  182  202  222  242  262
            0  0  0  1     1.280      3   23   43   63   83  103  123  143  163  183  203  223  243  263
            0  0  0  1     2.100      4   24   44   64   84  104  124  144  164  184  204  224  244  264
            0  0  0  1     4.600      5   25   45   65   85  105  125  145  165  185  205  225  245  265
            1  0  0  0     0.820      6   26   46   66   86  106  126  146  166  186  206  226  246  266
            0  1  0  0     0.820      7   27   47   67   87  107  127  147  167  187  207  227  247  267
            0  0  1  0     0.820      8   28   48   68   88  108  128  148  168  188  208  228  248  268
            1  0  0  0     1.480      9   29   49   69   89  109  129  149  169  189  209  229  249  269
            0  1  0  0     1.480     10   30   50   70   90  110  130  150  170  190  210  230  250  270
            0  0  1  0     1.480     11   31   51   71   91  111  131  151  171  191  211  231  251  271
            1  0  0  0     2.940     12   32   52   72   92  112  132  152  172  192  212  232  252  272
            0  1  0  0     2.940     13   33   53   73   93  113  133  153  173  193  213  233  253  273
            0  0  1  0     2.940     14   34   54   74   94  114  134  154  174  194  214  234  254  274
            2  0  0  0     2.200     15   35   55   75   95  115  135  155  175  195  215  235  255  275
            1  1  0  0     2.200     16   36   56   76   96  116  136  156  176  196  216  236  256  276
            1  0  1  0     2.200     17   37   57   77   97  117  137  157  177  197  217  237  257  277
            0  2  0  0     2.200     18   38   58   78   98  118  138  158  178  198  218  238  258  278
            0  1  1  0     2.200     19   39   59   79   99  119  139  159  179  199  219  239  259  279
            0  0  2  0     2.200     20   40   60   80  100  120  140  160  180  200  220  240  260  280

 H                                   15   16   17   18   19   20   21   22
                                  ---------------------------------------------------------------------------
            0  0  0  0     0.690    281  287  293  299  305  311  317  323
            0  0  0  0     0.920    282  288  294  300  306  312  318  324
            0  0  0  0     1.580    283  289  295  301  307  313  319  325
            1  0  0  0     1.250    284  290  296  302  308  314  320  326
            0  1  0  0     1.250    285  291  297  303  309  315  321  327
            0  0  1  0     1.250    286  292  298  304  310  316  322  328

 N                                   23
                                  ---------------------------------------------------------------------------
            0  0  0  0     8.740    329
            0  0  0  0     5.900    330
            0  0  0  1     5.150    331
            0  0  0  1     2.500    332
            0  0  0  1     1.500    333
            1  0  0  0     3.680    334
            0  1  0  0     3.680    335
            0  0  1  0     3.680    336
            1  0  0  0     1.880    337
            0  1  0  0     1.880    338
            0  0  1  0     1.880    339
            1  0  0  0     1.000    340
            0  1  0  0     1.000    341
            0  0  1  0     1.000    342
            2  0  0  0     2.200    343
            1  1  0  0     2.200    344
            1  0  1  0     2.200    345
            0  2  0  0     2.200    346
            0  1  1  0     2.200    347
            0  0  2  0     2.200    348

 S                                   24
                                  ---------------------------------------------------------------------------
            0  0  0  0    19.400    349
            0  0  0  0    14.350    350
            0  0  0  1     5.900    351
            0  0  0  1     4.250    352
            1  0  0  0     8.050    353
            0  1  0  0     8.050    354
            0  0  1  0     8.050    355
            1  0  0  0     4.550    356
            0  1  0  0     4.550    357
            0  0  1  0     4.550    358
            0  0  0  2     3.450    359
            0  0  0  2     2.250    360
            0  0  0  2     1.500    361
            1  0  0  1     2.650    362
            0  1  0  1     2.650    363
            0  0  1  1     2.650    364
            1  0  0  1     1.600    365
            0  1  0  1     1.600    366
            0  0  1  1     1.600    367
            1  0  0  1     1.000    368
            0  1  0  1     1.000    369
            0  0  1  1     1.000    370
            2  0  0  0     2.100    371
            1  1  0  0     2.100    372
            1  0  1  0     2.100    373
            0  2  0  0     2.100    374
            0  1  1  0     2.100    375
            0  0  2  0     2.100    376

 O                                   25   26   27
                                  ---------------------------------------------------------------------------
            0  0  0  0     9.800    377  397  417
            0  0  0  0     6.800    378  398  418
            0  0  0  1     7.580    379  399  419
            0  0  0  1     2.880    380  400  420
            0  0  0  1     1.720    381  401  421
            1  0  0  0     4.080    382  402  422
            0  1  0  0     4.080    383  403  423
            0  0  1  0     4.080    384  404  424
            1  0  0  0     2.080    385  405  425
            0  1  0  0     2.080    386  406  426
            0  0  1  0     2.080    387  407  427
            1  0  0  0     1.120    388  408  428
            0  1  0  0     1.120    389  409  429
            0  0  1  0     1.120    390  410  430
            2  0  0  0     2.000    391  411  431
            1  1  0  0     2.000    392  412  432
            1  0  1  0     2.000    393  413  433
            0  2  0  0     2.000    394  414  434
            0  1  1  0     2.000    395  415  435
            0  0  2  0     2.000    396  416  436

 Cl                                  28
                                  ---------------------------------------------------------------------------
            0  0  0  0    20.300    437
            0  0  0  0    15.250    438
            0  0  0  1     6.250    439
            0  0  0  1     4.450    440
            1  0  0  0     8.850    441
            0  1  0  0     8.850    442
            0  0  1  0     8.850    443
            1  0  0  0     5.050    444
            0  1  0  0     5.050    445
            0  0  1  0     5.050    446
            0  0  0  2     3.450    447
            0  0  0  2     2.300    448
            0  0  0  2     1.600    449
            1  0  0  1     3.350    450
            0  1  0  1     3.350    451
            0  0  1  1     3.350    452
            1  0  0  1     2.050    453
            0  1  0  1     2.050    454
            0  0  1  1     2.050    455
            1  0  0  1     1.200    456
            0  1  0  1     1.200    457
            0  0  1  1     1.200    458
            2  0  0  0     2.000    459
            1  1  0  0     2.000    460
            1  0  1  0     2.000    461
            0  2  0  0     2.000    462
            0  1  1  0     2.000    463
            0  0  2  0     2.000    464

 F                                   29   30   31   32
                                  ---------------------------------------------------------------------------
            0  0  0  0    10.880    465  485  505  525
            0  0  0  0     7.700    466  486  506  526
            0  0  0  1     3.240    467  487  507  527
            0  0  0  1     1.940    468  488  508  528
            0  0  0  1     0.740    469  489  509  529
            1  0  0  0     4.540    470  490  510  530
            0  1  0  0     4.540    471  491  511  531
            0  0  1  0     4.540    472  492  512  532
            1  0  0  0     2.300    473  493  513  533
            0  1  0  0     2.300    474  494  514  534
            0  0  1  0     2.300    475  495  515  535
            1  0  0  0     1.240    476  496  516  536
            0  1  0  0     1.240    477  497  517  537
            0  0  1  0     1.240    478  498  518  538
            2  0  0  0     2.000    479  499  519  539
            1  1  0  0     2.000    480  500  520  540
            1  0  1  0     2.000    481  501  521  541
            0  2  0  0     2.000    482  502  522  542
            0  1  1  0     2.000    483  503  523  543
            0  0  2  0     2.000    484  504  524  544

 Pd                                  33
                                  ---------------------------------------------------------------------------
            0  0  0  0   306.000    545
            0  0  0  0    76.400    546
            0  0  0  0    45.900    547
            0  0  0  1    53.800    548
            0  0  0  1    19.550    549
            0  0  0  2    10.150    550
            0  0  0  2     6.650    551
            0  0  0  3     6.150    552
            0  0  0  3     3.900    553
            0  0  0  4     2.500    554
            0  0  0  4     1.450    555
            0  0  0  4     0.850    556
            1  0  0  0    29.100    557
            0  1  0  0    29.100    558
            0  0  1  0    29.100    559
            1  0  0  0    18.750    560
            0  1  0  0    18.750    561
            0  0  1  0    18.750    562
            1  0  0  1    11.250    563
            0  1  0  1    11.250    564
            0  0  1  1    11.250    565
            1  0  0  1     8.100    566
            0  1  0  1     8.100    567
            0  0  1  1     8.100    568
            1  0  0  2     5.950    569
            0  1  0  2     5.950    570
            0  0  1  2     5.950    571
            1  0  0  2     3.950    572
            0  1  0  2     3.950    573
            0  0  1  2     3.950    574
            1  0  0  2     2.700    575
            0  1  0  2     2.700    576
            0  0  1  2     2.700    577
            2  0  0  0    17.550    578
            1  1  0  0    17.550    579
            1  0  1  0    17.550    580
            0  2  0  0    17.550    581
            0  1  1  0    17.550    582
            0  0  2  0    17.550    583
            2  0  0  0    10.450    584
            1  1  0  0    10.450    585
            1  0  1  0    10.450    586
            0  2  0  0    10.450    587
            0  1  1  0    10.450    588
            0  0  2  0    10.450    589
            2  0  0  0     6.900    590
            1  1  0  0     6.900    591
            1  0  1  0     6.900    592
            0  2  0  0     6.900    593
            0  1  1  0     6.900    594
            0  0  2  0     6.900    595
            2  0  0  1     4.250    596
            1  1  0  1     4.250    597
            1  0  1  1     4.250    598
            0  2  0  1     4.250    599
            0  1  1  1     4.250    600
            0  0  2  1     4.250    601
            2  0  0  1     2.200    602
            1  1  0  1     2.200    603
            1  0  1  1     2.200    604
            0  2  0  1     2.200    605
            0  1  1  1     2.200    606
            0  0  2  1     2.200    607
            2  0  0  1     1.100    608
            1  1  0  1     1.100    609
            1  0  1  1     1.100    610
            0  2  0  1     1.100    611
            0  1  1  1     1.100    612
            0  0  2  1     1.100    613
            1  0  0  3     1.450    614
            0  1  0  3     1.450    615
            0  0  1  3     1.450    616

 C                                   34   35   36   37   38   39   40   41   42   43   44   45   46   47   48
                                     49   50   51   52   53   54   55   56   57   58   59
                                  ---------------------------------------------------------------------------
            0  0  0  0     7.680    617  637  657  677  697  717  737  757  777  797  817  837  857  877  897
                                    917  937  957  977  997 1017 1037 1057 1077 1097 1117
            0  0  0  0     5.000    618  638  658  678  698  718  738  758  778  798  818  838  858  878  898
                                    918  938  958  978  998 1018 1038 1058 1078 1098 1118
            0  0  0  1     1.280    619  639  659  679  699  719  739  759  779  799  819  839  859  879  899
                                    919  939  959  979  999 1019 1039 1059 1079 1099 1119
            0  0  0  1     2.100    620  640  660  680  700  720  740  760  780  800  820  840  860  880  900
                                    920  940  960  980 1000 1020 1040 1060 1080 1100 1120
            0  0  0  1     4.600    621  641  661  681  701  721  741  761  781  801  821  841  861  881  901
                                    921  941  961  981 1001 1021 1041 1061 1081 1101 1121
            1  0  0  0     0.820    622  642  662  682  702  722  742  762  782  802  822  842  862  882  902
                                    922  942  962  982 1002 1022 1042 1062 1082 1102 1122
            0  1  0  0     0.820    623  643  663  683  703  723  743  763  783  803  823  843  863  883  903
                                    923  943  963  983 1003 1023 1043 1063 1083 1103 1123
            0  0  1  0     0.820    624  644  664  684  704  724  744  764  784  804  824  844  864  884  904
                                    924  944  964  984 1004 1024 1044 1064 1084 1104 1124
            1  0  0  0     1.480    625  645  665  685  705  725  745  765  785  805  825  845  865  885  905
                                    925  945  965  985 1005 1025 1045 1065 1085 1105 1125
            0  1  0  0     1.480    626  646  666  686  706  726  746  766  786  806  826  846  866  886  906
                                    926  946  966  986 1006 1026 1046 1066 1086 1106 1126
            0  0  1  0     1.480    627  647  667  687  707  727  747  767  787  807  827  847  867  887  907
                                    927  947  967  987 1007 1027 1047 1067 1087 1107 1127
            1  0  0  0     2.940    628  648  668  688  708  728  748  768  788  808  828  848  868  888  908
                                    928  948  968  988 1008 1028 1048 1068 1088 1108 1128
            0  1  0  0     2.940    629  649  669  689  709  729  749  769  789  809  829  849  869  889  909
                                    929  949  969  989 1009 1029 1049 1069 1089 1109 1129
            0  0  1  0     2.940    630  650  670  690  710  730  750  770  790  810  830  850  870  890  910
                                    930  950  970  990 1010 1030 1050 1070 1090 1110 1130
            2  0  0  0     2.200    631  651  671  691  711  731  751  771  791  811  831  851  871  891  911
                                    931  951  971  991 1011 1031 1051 1071 1091 1111 1131
            1  1  0  0     2.200    632  652  672  692  712  732  752  772  792  812  832  852  872  892  912
                                    932  952  972  992 1012 1032 1052 1072 1092 1112 1132
            1  0  1  0     2.200    633  653  673  693  713  733  753  773  793  813  833  853  873  893  913
                                    933  953  973  993 1013 1033 1053 1073 1093 1113 1133
            0  2  0  0     2.200    634  654  674  694  714  734  754  774  794  814  834  854  874  894  914
                                    934  954  974  994 1014 1034 1054 1074 1094 1114 1134
            0  1  1  0     2.200    635  655  675  695  715  735  755  775  795  815  835  855  875  895  915
                                    935  955  975  995 1015 1035 1055 1075 1095 1115 1135
            0  0  2  0     2.200    636  656  676  696  716  736  756  776  796  816  836  856  876  896  916
                                    936  956  976  996 1016 1036 1056 1076 1096 1116 1136

 H                                   60   61   62   63   64   65   66   67   68   69   70   71   72   73   74
                                     75   76   77   78   79   80   81   82   83
                                  ---------------------------------------------------------------------------
            0  0  0  0     0.690   1137 1143 1149 1155 1161 1167 1173 1179 1185 1191 1197 1203 1209 1215 1221
                                   1227 1233 1239 1245 1251 1257 1263 1269 1275
            0  0  0  0     0.920   1138 1144 1150 1156 1162 1168 1174 1180 1186 1192 1198 1204 1210 1216 1222
                                   1228 1234 1240 1246 1252 1258 1264 1270 1276
            0  0  0  0     1.580   1139 1145 1151 1157 1163 1169 1175 1181 1187 1193 1199 1205 1211 1217 1223
                                   1229 1235 1241 1247 1253 1259 1265 1271 1277
            1  0  0  0     1.250   1140 1146 1152 1158 1164 1170 1176 1182 1188 1194 1200 1206 1212 1218 1224
                                   1230 1236 1242 1248 1254 1260 1266 1272 1278
            0  1  0  0     1.250   1141 1147 1153 1159 1165 1171 1177 1183 1189 1195 1201 1207 1213 1219 1225
                                   1231 1237 1243 1249 1255 1261 1267 1273 1279
            0  0  1  0     1.250   1142 1148 1154 1160 1166 1172 1178 1184 1190 1196 1202 1208 1214 1220 1226
                                   1232 1238 1244 1250 1256 1262 1268 1274 1280

 P                                   84   85
                                  ---------------------------------------------------------------------------
            0  0  0  0    18.000   1281 1309
            0  0  0  0    13.350   1282 1310
            0  0  0  1     5.600   1283 1311
            0  0  0  1     4.050   1284 1312
            1  0  0  0     7.450   1285 1313
            0  1  0  0     7.450   1286 1314
            0  0  1  0     7.450   1287 1315
            1  0  0  0     4.100   1288 1316
            0  1  0  0     4.100   1289 1317
            0  0  1  0     4.100   1290 1318
            0  0  0  2     2.700   1291 1319
            0  0  0  2     1.850   1292 1320
            0  0  0  2     1.300   1293 1321
            1  0  0  1     2.300   1294 1322
            0  1  0  1     2.300   1295 1323
            0  0  1  1     2.300   1296 1324
            1  0  0  1     1.350   1297 1325
            0  1  0  1     1.350   1298 1326
            0  0  1  1     1.350   1299 1327
            1  0  0  1     0.850   1300 1328
            0  1  0  1     0.850   1301 1329
            0  0  1  1     0.850   1302 1330
            2  0  0  0     1.900   1303 1331
            1  1  0  0     1.900   1304 1332
            1  0  1  0     1.900   1305 1333
            0  2  0  0     1.900   1306 1334
            0  1  1  0     1.900   1307 1335
            0  0  2  0     1.900   1308 1336

 Total number of charge fitting functions (nprimf)      6297
 Total number of Cartesian basis functions (naos)       1336
 Total number of Cartesian core functions  (ncos)          0

1
 ***************************************************************************************************



                                              ***********************
                                              *  T E C H N I C A L  *
                                              ***********************
  



 =============================================================
 P A R A L L E L I Z A T I O N  and  V E C T O R I Z A T I O N
 =============================================================
  
 Nr of parallel processes:                               16
 Maximum vector length in NumInt loops:                 128



 =====================
 S C F   U P D A T E S
 =====================
  
 Max. nr. of cycles:                               300
 Convergence criterion:                              0.0000010000
   secondary criterion:                              0.0010000000

 Mix parameter (when DIIS does not apply):           0.2000000000
 Mixed ADIIS+SDIIS will be used                  
    Max number of expansion vectors:                10
    Pure ADIIS when Max([F,P]) is above              0.1000000000
    Pure SDIIS when Max([F,P]) is below              0.0010000000
 Automatic ElectronSmearing (in case of problematic SCF convergence) disabled



 =================
 P R E C I S I O N  ***  (General: NumInt, NeglectFunctionTails, ...)  ***
 =================
  

 NumInt:           Target precision:                 8.0000000000
 -------           Initial precision:                8.0000000000
                   Min. precision (optimization):    8.0000000000

 Neglect Functions:          Basis functions:        0.1000000000E-09
 ------------------          Fit functions:          0.1000000000E-09



 ===========================
 L I N E A R   S C A L I N G
 ===========================
  

 Cut-off radii density fit:                        0.1000000000E-11
 Overlap cut-off criterion AO matrix elements:     0.1000000000E-09
 Cut-offs for Coulomb potential and fitted density:0.1000000000E-11
 Cut-off criterion for Coulomb multipole terms:    0.1000000000E-11
 Progressive Convergence parameter:                 0.000000000    
1
 ***************************************************************************************************



                                            ***************************
                                            *  C O M P U T A T I O N  *
                                            ***************************
  

 Number of elements of the density matrix on this node (used, total):     55485    893116



 ===========================================
 Numerical Integration : Fuzzy Cells (Becke)
 ===========================================
  
 Becke grid quality: VERYGOOD       
  
 Lebedev angular grid order:             min:  13 max:  41
 Nr. of radial points:                   min:  64 max: 183

 Total nr. of points:    2056385
 Nr. of blocks:            16066
 Block length:               128
 Nr. of dummy points:         63


 Test of Precision of the Numerical Integration Grid
 ===================================================

 Integral of the Total Core Density:                   0.00000000000000



 ========================
 Density Fitting (zlmFit)
 ========================
  
 ZlmFit Fit Quality: VERYGOOD       
  
 Max L-expansion:                        min:   9 max:  10
 Nr. of radial interpolation points:     min: 120 max: 400



 ======================
 RI Hartree-Fock Scheme
 ======================
  
 Fit Set Quality     : VERYGOOD
 Threshold Quality   : VERYGOOD
 Integration Quality : VERYGOOD
 Fit Generation Method : AUTO
 Response Quality    : DEFAULT
 Is Range Separated  :  F
 
 RIHartreeFock Dependency: number of modified vectors:          77



 =====
 S C F  ***  ScaSCF  ***
 =====
  
 Initial density matrix is calculated as sum of fragments

 CYCLE    1
 SCF Error: norm([F,P])=      4.438289199838, max([F,P])=      2.065266254379
 orbitals (Q,E):
 ---------------
 A :215...234        ( 2.00    -0.2710)  ( 2.00    -0.2657)  ( 2.00    -0.2599)  ( 2.00    -0.2573)
                     ( 2.00    -0.2498)  ( 2.00    -0.2330)  ( 2.00    -0.2233)  ( 2.00    -0.2147)
                     ( 2.00    -0.1965)  ( 2.00    -0.1514)  ( 0.00    -0.0584)  ( 0.00    -0.0404)
                     ( 0.00    -0.0381)  ( 0.00    -0.0321)  ( 0.00    -0.0295)  ( 0.00    -0.0252)
                     ( 0.00    -0.0193)  ( 0.00    -0.0148)  ( 0.00    -0.0137)  ( 0.00    -0.0094)

 CYCLE    2
   MIX coefficients:  0.8000  0.2000
 SCF Error: norm([F,P])=      0.781488140394, max([F,P])=      0.097536392923
 orbitals (Q,E):
 ---------------
 A :215...225        ( 2.00    -0.2758)  ( 2.00    -0.2737)  ( 2.00    -0.2712)  ( 2.00    -0.2706)
                     ( 2.00    -0.2664)  ( 2.00    -0.2597)  ( 2.00    -0.2530)  ( 2.00    -0.2501)
                     ( 2.00    -0.2364)  ( 2.00    -0.1625)  ( 0.00    -0.0532)

 CYCLE    3
  SDIIS (wt  0.000): -0.0662  1.0662
 A-DIIS (wt  1.000):  0.0000  1.0000
  DIIS coefficients:  0.0000  1.0000
 SCF Error: norm([F,P])=      0.107019877374, max([F,P])=      0.009448133673
 orbitals (Q,E):
 ---------------
 A :215...225        ( 2.00    -0.2814)  ( 2.00    -0.2785)  ( 2.00    -0.2777)  ( 2.00    -0.2743)
                     ( 2.00    -0.2738)  ( 2.00    -0.2572)  ( 2.00    -0.2513)  ( 2.00    -0.2459)
                     ( 2.00    -0.2339)  ( 2.00    -0.1627)  ( 0.00    -0.0444)

 CYCLE    4
  SDIIS (wt  0.000):  0.0930  0.3883  0.5187
 A-DIIS (wt  1.000):  0.0000  0.6829  0.3171
  DIIS coefficients:  0.0000  0.6829  0.3171
 SCF Error: norm([F,P])=      0.196795244836, max([F,P])=      0.021840499206
 orbitals (Q,E):
 ---------------
 A :215...225        ( 2.00    -0.2777)  ( 2.00    -0.2734)  ( 2.00    -0.2732)  ( 2.00    -0.2693)
[...]
     450       15.6431         0.000       
     449       15.5091         0.000       
     448       15.3298         0.000       
     447       15.3174         0.000       
     446       15.2625         0.000       
     445       15.1397         0.000       
     444       15.0897         0.000       
     443       15.0287         0.000       
     442       14.9658         0.000       
     441       14.8627         0.000       
     440       14.6994         0.000       
     439       14.6191         0.000       
     438       14.5068         0.000       
     437       14.4273         0.000       
     436       14.3844         0.000       
     435       14.3258         0.000       
     434       14.2683         0.000       
     433       14.1926         0.000       
     432       14.1108         0.000       
     431       13.9853         0.000       
     430       13.9486         0.000       
     429       13.8951         0.000       
     428       13.8339         0.000       
     427       13.6721         0.000       
     426       13.5875         0.000       
     425       13.5072         0.000       
     424       13.3539         0.000       
     423       13.3112         0.000       
     422       13.2397         0.000       
     421       13.1706         0.000       
     420       13.1529         0.000       
     419       12.9938         0.000       
     418       12.9651         0.000       
     417       12.8817         0.000       
     416       12.8159         0.000       
     415       12.7517         0.000       
     414       12.6669         0.000       
     413       12.5808         0.000       
     412       12.5078         0.000       
     411       12.4372         0.000       
     410       12.3552         0.000       
     409       12.1992         0.000       
     408       12.1282         0.000       
     407       12.1071         0.000       
     406       12.0366         0.000       
     405       12.0009         0.000       
     404       11.8954         0.000       
     403       11.8369         0.000       
     402       11.7438         0.000       
     401       11.6867         0.000       
     400       11.6236         0.000       
     399       11.5322         0.000       
     398       11.4407         0.000       
     397       11.3992         0.000       
     396       11.3417         0.000       
     395       11.3071         0.000       
     394       11.2669         0.000       
     393       11.2177         0.000       
     392       11.1811         0.000       
     391       11.1596         0.000       
     390       11.0301         0.000       
     389       10.9893         0.000       
     388       10.9168         0.000       
     387       10.8915         0.000       
     386       10.7818         0.000       
     385       10.7281         0.000       
     384       10.7115         0.000       
     383       10.6436         0.000       
     382       10.5645         0.000       
     381       10.5011         0.000       
     380       10.4273         0.000       
     379       10.3422         0.000       
     378       10.3157         0.000       
     377       10.2176         0.000       
     376       10.1533         0.000       
     375       10.1178         0.000       
     374       10.0048         0.000       
     373        9.9564         0.000       
     372        9.8812         0.000       
     371        9.8305         0.000       
     370        9.7578         0.000       
     369        9.7423         0.000       
     368        9.7130         0.000       
     367        9.6014         0.000       
     366        9.5875         0.000       
     365        9.5139         0.000       
     364        9.4951         0.000       
     363        9.4648         0.000       
     362        9.3493         0.000       
     361        9.2630         0.000       
     360        9.1942         0.000       
     359        9.1132         0.000       
     358        9.0409         0.000       
     357        8.9598         0.000       
     356        8.8997         0.000       
     355        8.8477         0.000       
     354        8.7313         0.000       
     353        8.6775         0.000       
     352        8.6268         0.000       
     351        8.5212         0.000       
     350        8.4789         0.000       
     349        8.4180         0.000       
     348        8.2716         0.000       
     347        8.2388         0.000       
     346        8.1955         0.000       
     345        8.1354         0.000       
     344        8.0190         0.000       
     343        7.9469         0.000       
     342        7.9240         0.000       
     341        7.7667         0.000       
     340        7.7282         0.000       
     339        7.6198         0.000       
     338        7.5874         0.000       
     337        7.5236         0.000       
     336        7.4112         0.000       
     335        7.3116         0.000       
     334        7.2582         0.000       
     333        7.1670         0.000       
     332        7.0970         0.000       
     331        7.0687         0.000       
     330        6.9756         0.000       
     329        6.9392         0.000       
     328        6.8685         0.000       
     327        6.7807         0.000       
     326        6.6978         0.000       
     325        6.6574         0.000       
     324        6.6062         0.000       
     323        6.5270         0.000       
     322        6.4564         0.000       
     321        6.4265         0.000       
     320        6.3255         0.000       
     319        6.2565         0.000       
     318        6.1539         0.000       
     317        6.1291         0.000       
     316        6.0335         0.000       
     315        5.9643         0.000       
     314        5.9465         0.000       
     313        5.8225         0.000       
     312        5.7926         0.000       
     311        5.7596         0.000       
     310        5.7370         0.000       
     309        5.6516         0.000       
     308        5.6321         0.000       
     307        5.5706         0.000       
     306        5.4714         0.000       
     305        5.4152         0.000       
     304        5.3575         0.000       
     303        5.3295         0.000       
     302        5.2577         0.000       
     301        5.1080         0.000       
     300        4.9818         0.000       
     299        4.8631         0.000       
     298        4.8544         0.000       
     297        4.7830         0.000       
     296        4.6211         0.000       
     295        4.5872         0.000       
     294        4.5399         0.000       
     293        4.4355         0.000       
     292        4.3453         0.000       
     291        4.2886         0.000       
     290        4.2334         0.000       
     289        4.2096         0.000       
     288        4.0292         0.000       
     287        3.9616         0.000       
     286        3.8830         0.000       
     285        3.7764         0.000       
     284        3.7594         0.000       
     283        3.7257         0.000       
     282        3.5935         0.000       
     281        3.5301         0.000       
     280        3.4807         0.000       
     279        3.4474         0.000       
     278        3.2961         0.000       
     277        3.2740         0.000       
     276        3.1648         0.000       
     275        3.1403         0.000       
     274        3.0394         0.000       
     273        3.0193         0.000       
     272        2.9163         0.000       
     271        2.8522         0.000       
     270        2.7839         0.000       
     269        2.7197         0.000       
     268        2.6975         0.000       
     267        2.5716         0.000       
     266        2.4824         0.000       
     265        2.4263         0.000       
     264        2.3738         0.000       
     263        2.3280         0.000       
     262        2.1539         0.000       
     261        2.1321         0.000       
     260        2.0311         0.000       
     259        2.0202         0.000       
     258        1.9820         0.000       
     257        1.9007         0.000       
     256        1.7642         0.000       
     255        1.7074         0.000       
     254        1.6690         0.000       
     253        1.5848         0.000       
     252        1.4671         0.000       
     251        1.4132         0.000       
     250        1.3176         0.000       
     249        1.1918         0.000       
     248        1.1530         0.000       
     247        0.9815         0.000       
     246        0.9365         0.000       
     245        0.8444         0.000       
     244        0.7726         0.000       
     243        0.7125         0.000       
     242        0.6341         0.000       
     241        0.5551         0.000       
     240        0.4579         0.000       
     239        0.3632         0.000       
     238        0.2823         0.000       
     237        0.0850         0.000       
     236        0.0000         0.000       
     235       -0.2079         0.000       
     234       -0.3462         0.000       
     233       -0.4963         0.000       
     232       -0.6069         0.000       
     231       -0.6496         0.000       
     230       -0.7379         0.000       
     229       -0.9013         0.000       
     228       -1.0557         0.000       
     227       -1.1482         0.000       
     226       -1.1996         0.000       
     225       -1.2451         0.000 < LUMO
     224       -4.4840         2.000 < HOMO
     223       -6.3687         2.000       
     222       -6.7272         2.000       
     221       -6.8590         2.000       
     220       -7.0170         2.000       
     219       -7.3694         2.000       
     218       -7.4080         2.000       
     217       -7.4652         2.000       
     216       -7.4837         2.000       
     215       -7.5954         2.000       
     214       -7.6104         2.000       
     213       -7.6439         2.000       
     212       -7.6728         2.000       
     211       -7.7590         2.000       
     210       -7.8858         2.000       
     209       -7.9303         2.000       
     208       -8.0964         2.000       
     207       -8.5452         2.000       
     206       -8.6496         2.000       
     205       -8.8675         2.000       
     204       -9.0163         2.000       
     203       -9.1265         2.000       
     202       -9.3672         2.000       
     201       -9.4106         2.000       
     200       -9.4573         2.000       
     199       -9.4948         2.000       
     198       -9.5112         2.000       
     197       -9.6417         2.000       
     196       -9.7304         2.000       
     195       -9.7902         2.000       
     194       -9.9268         2.000       
     193       -9.9827         2.000       
     192      -10.0237         2.000       
     191      -10.0988         2.000       
     190      -10.1632         2.000       
     189      -10.2690         2.000       
     188      -10.3280         2.000       
     187      -10.5879         2.000       
     186      -10.6380         2.000       
     185      -10.6951         2.000       
     184      -10.7974         2.000       
     183      -10.8445         2.000       
     182      -10.9140         2.000       
     181      -11.0159         2.000       
     180      -11.1939         2.000       
     179      -11.2751         2.000       
     178      -11.3182         2.000       
     177      -11.4940         2.000       
     176      -11.6577         2.000       
     175      -11.6972         2.000       
     174      -11.8198         2.000       
     173      -11.9843         2.000       
     172      -12.0219         2.000       
     171      -12.1020         2.000       
     170      -12.1340         2.000       
     169      -12.2104         2.000       
     168      -12.2254         2.000       
     167      -12.2984         2.000       
     166      -12.4248         2.000       
     165      -12.5707         2.000       
     164      -12.5971         2.000       
     163      -12.6390         2.000       
     162      -12.7430         2.000       
     161      -12.8566         2.000       
     160      -12.9034         2.000       
     159      -13.0059         2.000       
     158      -13.0332         2.000       
     157      -13.0737         2.000       
     156      -13.1287         2.000       
     155      -13.1437         2.000       
     154      -13.2348         2.000       
     153      -13.2624         2.000       
     152      -13.3802         2.000       
     151      -13.4006         2.000       
     150      -13.4133         2.000       
     149      -13.4948         2.000       
     148      -13.6662         2.000       
     147      -13.8643         2.000       
     146      -14.0429         2.000       
     145      -14.2450         2.000       
     144      -14.3175         2.000       
     143      -14.3927         2.000       
     142      -14.6520         2.000       
     141      -14.7104         2.000       
     140      -14.8443         2.000       
     139      -14.9087         2.000       
     138      -14.9849         2.000       
     137      -15.2670         2.000       
     136      -15.3569         2.000       
     135      -15.8061         2.000       
     134      -15.9868         2.000       
     133      -16.1108         2.000       
     132      -16.1938         2.000       
     131      -16.2459         2.000       
     130      -16.8960         2.000       
     129      -17.0309         2.000       
     128      -17.1036         2.000       
     127      -17.2144         2.000       
     126      -17.2496         2.000       
     125      -17.2917         2.000       
     124      -17.3563         2.000       
     123      -17.4708         2.000       
     122      -17.4846         2.000       
     121      -17.6755         2.000       
     120      -18.4051         2.000       
     119      -18.5566         2.000       
     118      -18.7821         2.000       
     117      -19.3227         2.000       
     116      -19.7383         2.000       
     115      -20.4190         2.000       
     114      -20.9460         2.000       
     113      -21.1300         2.000       
     112      -21.2141         2.000       
     111      -21.2436         2.000       
     110      -21.3102         2.000       
     109      -21.3461         2.000       
     108      -21.3548         2.000       
     107      -21.4606         2.000       
     106      -21.5447         2.000       
     105      -21.7375         2.000       
     104      -21.9915         2.000       
     103      -22.4899         2.000       
     102      -22.8993         2.000       
     101      -24.1299         2.000       
     100      -24.2477         2.000       
      99      -24.4094         2.000       
      98      -24.5030         2.000       
      97      -24.5805         2.000       
      96      -24.6165         2.000       
      95      -24.7479         2.000       
      94      -26.9947         2.000       
      93      -28.3426         2.000       
      92      -30.0947         2.000       
      91      -31.3523         2.000       
      90      -34.7833         2.000       
      89      -34.9565         2.000       
      88      -35.1870         2.000       
      87      -35.4520         2.000       
      86      -57.3609         2.000       
      85      -57.8349         2.000       
      84      -58.1070         2.000       
      83      -93.1435         2.000       
      82     -129.4281         2.000       
      81     -129.5194         2.000       
      80     -129.5287         2.000       
      79     -129.6331         2.000       
      78     -129.7185         2.000       
      77     -129.7188         2.000       
      76     -166.0696         2.000       
      75     -166.0854         2.000       
      74     -166.1257         2.000       
      73     -181.3038         2.000       
      72     -181.4996         2.000       
      71     -197.4950         2.000       
      70     -197.5074         2.000       
      69     -197.7939         2.000       
      68     -223.6401         2.000       
      67     -261.1434         2.000       
      66     -278.5349         2.000       
      65     -278.5843         2.000       
      64     -278.6308         2.000       
      63     -278.6462         2.000       
      62     -278.6635         2.000       
      61     -278.6988         2.000       
      60     -278.7307         2.000       
      59     -278.8013         2.000       
      58     -278.8038         2.000       
      57     -278.8189         2.000       
      56     -278.8221         2.000       
      55     -278.8588         2.000       
      54     -278.8590         2.000       
      53     -278.8783         2.000       
      52     -278.9026         2.000       
      51     -278.9333         2.000       
      50     -278.9501         2.000       
      49     -278.9592         2.000       
      48     -278.9885         2.000       
      47     -279.0048         2.000       
      46     -279.0418         2.000       
      45     -279.0454         2.000       
      44     -279.0696         2.000       
      43     -279.0702         2.000       
      42     -279.1136         2.000       
      41     -279.1607         2.000       
      40     -279.1948         2.000       
      39     -279.2396         2.000       
      38     -279.2490         2.000       
      37     -279.2984         2.000       
      36     -279.4097         2.000       
      35     -279.7956         2.000       
      34     -279.9246         2.000       
      33     -279.9840         2.000       
      32     -280.3185         2.000       
      31     -280.8430         2.000       
      30     -281.3209         2.000       
      29     -281.3443         2.000       
      28     -281.3838         2.000       
      27     -281.4112         2.000       
      26     -337.4274         2.000       
      25     -337.4393         2.000       
      24     -337.5000         2.000       
      23     -337.5730         2.000       
      22     -337.5814         2.000       
      21     -393.4766         2.000       
      20     -523.0600         2.000       
      19     -523.1130         2.000       
      18     -523.9203         2.000       
      17     -531.2791         2.000       
      16     -531.4319         2.000       
      15     -531.5262         2.000       
      14     -653.2467         2.000       
      13     -675.2426         2.000       
      12     -675.5276         2.000       
      11     -675.5313         2.000       
      10     -675.6357         2.000       
       9    -2107.3624         2.000       
       8    -2107.5748         2.000       
       7    -2435.4140         2.000       
       6    -2777.3721         2.000       
       5    -3189.3939         2.000       
       4    -3189.4645         2.000       
       3    -3189.4970         2.000       
       2    -3560.4013         2.000       
       1   -24223.5730         2.000       

AMS application finished. Exiting.
NORMAL TERMINATION
     Total cpu time:    3134.61
  Total system time:      36.30
 Total elapsed time:    3180.57
NORMAL TERMINATION
