

 Parallel Execution: Process Information
 ==============================================================================
 Rank   Node Name                              NodeID   MyNodeRank  NodeMaster
    0   eu-g5-002-2                               0          0          0
    1   eu-g5-002-2                               1          0          1
    2   eu-g5-002-2                               0          1         -1
    3   eu-g5-002-2                               1          1         -1
    4   eu-g5-002-2                               0          2         -1
    5   eu-g5-002-2                               1          2         -1
    6   eu-g5-002-2                               0          3         -1
    7   eu-g5-002-2                               1          3         -1
    8   eu-g5-002-2                               0          4         -1
    9   eu-g5-002-2                               1          4         -1
   10   eu-g5-002-2                               2          0          2
   11   eu-g5-002-2                               1          5         -1
   12   eu-g5-002-2                               2          1         -1
   13   eu-g5-002-2                               1          6         -1
   14   eu-g5-002-2                               2          2         -1
   15   eu-g5-002-2                               1          7         -1
 ==============================================================================


May use up to 30758MB of RAM as shared memory on node 0
May use up to 30753MB of RAM as shared memory on node 2
May use up to 30758MB of RAM as shared memory on node 1

 *******************************************************************************
 *                                                                             *
 *  --------------------------------                                           *
 *   Amsterdam Modeling Suite (AMS)              2023.101                      *
 *  --------------------------------                                           *
 *                                               r111868 2023-03-31            *
 *                                                                             *
 *                                                                             *
 *                              =================                              *
 *                              |               |                              *
 *                              |     A M S     |                              *
 *                              |               |                              *
 *                              =================                              *
 *                                                                             *
 *                                                                             *
 *   Online information and documentation:  https://www.scm.com/support/       *
 *   E-mail:  support@scm.com   info@scm.com                                   *
 *                                                                             *
 *   Scientific publications using AMS results must be properly referenced     *
 *   See the User Manuals (or the web site) for recommended citations          *
 *   The terms and conditions of the End User License Agreement apply to       *
 *   the use of AMS, https://www.scm.com/license-terms/                        *
 *                                                                             *
 ***********************  x86_64_linux_intel / openmpi  ************************
 
 Licensed to: D-CHAB / ETH site license / Zurich / Switzerland 2025-05-19 12:08:29
 SCM User ID: u7035
  
 AMS 2023.101  RunTime: Jul16-2025 15:44:50  ShM Nodes: 3  Procs: 16

 AMS jobname: ts_dppBz
 AMS jobid  : 1742720885

 Start   directory: /cluster/home/rueppf/phd/Pd_red_el/revision_barriers/dppBz/EDA/
 Results directory: /cluster/home/rueppf/phd/Pd_red_el/revision_barriers/dppBz/EDA/ts_dppBz.results/
 Scratch directory: /scratch/amstmp_ts_dppBz_kid0.1742720885/


 Communication costs MPI_COMM_WORLD:     10.125 usec per message,   0.0254 usec per 8-byte item
 Communication costs for intra-node:      3.549 usec per message,   0.0169 usec per 8-byte item

 RNG seed: 1741782617 1154235602 -1991931920 200895551 -685672531 -1082721424 1942880867 1725935473



                     *************************************************************************
                     *  ADF 2023.101  RunTime: Jul16-2025 15:44:50  ShM Nodes: 3  Procs: 16  *
                     *************************************************************************
  

       ****************************
       * SINGLE POINT CALCULATION *
       ****************************
 
--------
Geometry
--------
Formula: C44H32ClF4NO3P2PdS
Atoms
  Index Symbol   x (angstrom)   y (angstrom)   z (angstrom)
      1      C     1.60440300     0.51948700     1.01005000       region=Pdcycle adf.f=Pdcycle
      2      C     1.45378600     1.21720600     2.23393800       region=Pdcycle adf.f=Pdcycle
      3      H     0.67207100     0.92616500     2.93835900       region=Pdcycle adf.f=Pdcycle
      4      C     2.23403800     2.33770200     2.46222300       region=Pdcycle adf.f=Pdcycle
      5      H     2.08083000     2.94846300     3.35520800       region=Pdcycle adf.f=Pdcycle
      6      C     3.22397100     2.75030400     1.54484000       region=Pdcycle adf.f=Pdcycle
      7      C     3.51235100     1.94984400     0.44490600       region=Pdcycle adf.f=Pdcycle
      8      H     4.34798600     2.17004900    -0.21714100       region=Pdcycle adf.f=Pdcycle
      9      C     2.74371100     0.79892400     0.20797600       region=Pdcycle adf.f=Pdcycle
     10      C     3.05828800    -0.30608400    -0.66233800       region=Pdcycle adf.f=Pdcycle
     11      C     3.92332100    -0.35023100    -1.75595800       region=Pdcycle adf.f=Pdcycle
     12      C     4.13025400    -1.53410000    -2.44994800       region=Pdcycle adf.f=Pdcycle
     13      C     3.45176700    -2.69318800    -2.06183200       region=Pdcycle adf.f=Pdcycle
     14      C     2.56556900    -2.67534900    -0.98692500       region=Pdcycle adf.f=Pdcycle
     15      C     2.38494000    -1.49565600    -0.25849000       region=Pdcycle adf.f=Pdcycle
     16      N     1.49604000    -1.28910200     0.80555900       region=Pdcycle adf.f=Pdcycle
     17      S     1.43320800    -2.21929000     2.19934900       region=Pdcycle adf.f=Pdcycle
     18      O     0.34435100    -1.64622500     2.97823200       region=Pdcycle adf.f=Pdcycle
     19      O     1.48282300    -3.63911100     1.91159000       region=Pdcycle adf.f=Pdcycle
     20      C     3.00134100    -1.75058700     2.96551800       region=Pdcycle adf.f=Pdcycle
     21     Cl     3.22467900    -2.57387500     4.50288700       region=Pdcycle adf.f=Pdcycle
     22      H     2.98068400    -0.66170400     3.11043000       region=Pdcycle adf.f=Pdcycle
     23      H     3.79645200    -2.03819200     2.26419900       region=Pdcycle adf.f=Pdcycle
     24      F     1.87564700    -3.77670200    -0.74017700       region=Pdcycle adf.f=Pdcycle
     25      F     3.61351400    -3.80498900    -2.76202300       region=Pdcycle adf.f=Pdcycle
     26      F     4.94139600    -1.57081500    -3.49541800       region=Pdcycle adf.f=Pdcycle
     27      F     4.55154600     0.75002200    -2.17202100       region=Pdcycle adf.f=Pdcycle
     28      O     3.86901900     3.90361000     1.84537400       region=Pdcycle adf.f=Pdcycle
     29      C     4.80485300     4.38637400     0.92759100       region=Pdcycle adf.f=Pdcycle
     30      H     4.35735000     4.52914500    -0.07352700       region=Pdcycle adf.f=Pdcycle
     31      H     5.67597400     3.71310400     0.82841500       region=Pdcycle adf.f=Pdcycle
     32      H     5.15307300     5.35590700     1.30697000       region=Pdcycle adf.f=Pdcycle
     33     Pd    -0.17955300    -0.14784500     0.26766800       region=Pdcycle adf.f=Pdcycle
     34      P    -2.26338200    -1.11181800    -0.33013900       region=ligand adf.f=ligand
     35      P    -1.06929800     1.71938800    -0.70291200       region=ligand adf.f=ligand
     36      C    -2.19560400     1.10556300    -2.00881900       region=ligand adf.f=ligand
     37      C    -2.72083400    -0.19771200    -1.85984200       region=ligand adf.f=ligand
     38      C    -2.08280300     2.75661700     0.39235100       region=ligand adf.f=ligand
     39      C    -3.46348300     2.90173200     0.22823900       region=ligand adf.f=ligand
     40      H    -3.96049700     2.44995400    -0.63255000       region=ligand adf.f=ligand
     41      C    -4.20828400     3.60807000     1.17126400       region=ligand adf.f=ligand
     42      H    -5.28876800     3.70452800     1.04260600       region=ligand adf.f=ligand
     43      C    -3.58026700     4.18386900     2.27326700       region=ligand adf.f=ligand
     44      H    -4.16689800     4.73684700     3.01068200       region=ligand adf.f=ligand
     45      C    -2.20058700     4.04816500     2.43687900       region=ligand adf.f=ligand
     46      H    -1.70354700     4.49477800     3.30133800       region=ligand adf.f=ligand
     47      C    -1.45413600     3.32940000     1.50893000       region=ligand adf.f=ligand
     48      H    -0.37786600     3.20011600     1.65272900       region=ligand adf.f=ligand
     49      C     0.09819600     2.83861900    -1.53205600       region=ligand adf.f=ligand
     50      C     1.13779500     2.23515200    -2.25429600       region=ligand adf.f=ligand
     51      H     1.17823300     1.14439800    -2.32708700       region=ligand adf.f=ligand
     52      C     2.12365500     3.01435700    -2.85089000       region=ligand adf.f=ligand
     53      H     2.93839900     2.53179700    -3.39450900       region=ligand adf.f=ligand
     54      C     2.08831800     4.40273100    -2.71675900       region=ligand adf.f=ligand
     55      H     2.86936000     5.01557400    -3.17347100       region=ligand adf.f=ligand
     56      C     1.05846800     5.00858600    -1.99669500       region=ligand adf.f=ligand
     57      H     1.02896800     6.09585700    -1.89236900       region=ligand adf.f=ligand
     58      C     0.06383200     4.23194300    -1.40513100       region=ligand adf.f=ligand
     59      H    -0.73675800     4.70828000    -0.83447100       region=ligand adf.f=ligand
     60      C    -2.60773200    -2.86242600    -0.69725500       region=ligand adf.f=ligand
     61      C    -1.50950800    -3.65107500    -1.06268300       region=ligand adf.f=ligand
     62      H    -0.50899900    -3.21295300    -1.08545000       region=ligand adf.f=ligand
     63      C    -1.68215600    -5.00120800    -1.35719900       region=ligand adf.f=ligand
     64      H    -0.81551800    -5.60752800    -1.62972300       region=ligand adf.f=ligand
     65      C    -2.95042600    -5.57440000    -1.27752300       region=ligand adf.f=ligand
     66      H    -3.08545800    -6.63580000    -1.49912900       region=ligand adf.f=ligand
     67      C    -4.04483200    -4.79842100    -0.89372300       region=ligand adf.f=ligand
     68      H    -5.03588700    -5.25155200    -0.81334200       region=ligand adf.f=ligand
     69      C    -3.87667800    -3.44696000    -0.60004000       region=ligand adf.f=ligand
     70      H    -4.73227000    -2.84828900    -0.27821000       region=ligand adf.f=ligand
     71      C    -3.54831800    -0.57721400     0.85371700       region=ligand adf.f=ligand
     72      C    -4.84934400    -0.23154100     0.46927500       region=ligand adf.f=ligand
     73      H    -5.14358900    -0.29480700    -0.58176300       region=ligand adf.f=ligand
     74      C    -5.76228900     0.22228400     1.41844300       region=ligand adf.f=ligand
     75      H    -6.77559000     0.49360600     1.11211200       region=ligand adf.f=ligand
     76      C    -5.37822400     0.34428200     2.75352800       region=ligand adf.f=ligand
     77      H    -6.09107800     0.71284700     3.49512500       region=ligand adf.f=ligand
     78      C    -4.08284900     0.00374400     3.14102300       region=ligand adf.f=ligand
     79      H    -3.77750000     0.10377200     4.18499000       region=ligand adf.f=ligand
     80      C    -3.16797300    -0.45705200     2.19683800       region=ligand adf.f=ligand
     81      H    -2.14669100    -0.71687600     2.49472200       region=ligand adf.f=ligand
     82      C    -3.52565500    -0.73020700    -2.87060000       region=ligand adf.f=ligand
     83      C    -3.81954300     0.02196300    -4.00747700       region=ligand adf.f=ligand
     84      C    -3.31062700     1.31277100    -4.14677600       region=ligand adf.f=ligand
     85      C    -2.49804500     1.85162700    -3.15102000       region=ligand adf.f=ligand
     86      H    -2.07715500     2.85392400    -3.26609800       region=ligand adf.f=ligand
     87      H    -4.44451900    -0.40770100    -4.79400600       region=ligand adf.f=ligand
     88      H    -3.53644500     1.89840900    -5.04092000       region=ligand adf.f=ligand
     89      H    -3.91230400    -1.74785000    -2.77261400       region=ligand adf.f=ligand
 
Total System Charge             0.00000
Bonding info available!
 
 
----------------
ADF Engine Input
----------------
 
 Basis
 Type TZP
 Core None
 End
 Fragments
 ligand ./ts_dppBz.ligand.results/adf.rkf
 Pdcycle ./ts_dppBz.Pdcycle.results/adf.rkf
 End
 XC
 Hybrid PBE0
 DISPERSION Grimme3 BJDAMP
 End
 NumericalQuality VeryGood
 

 Title: *** (NO TITLE) ***

 *** adf ***



 ===========================
 A T T A C H E D   F I L E S
 ===========================
  



 ===============================
 M O D E L   P A R A M E T E R S
 ===============================
  
 DENSITY FUNCTIONAL POTENTIAL (scf)
    Hybrid:                            PBE0                                    == Not Default ==

 SPIN  (restricted / unrestr.)
    Molecule:                          Restricted                               
    Fragments:                         Restricted                               

 OTHER ASPECTS
    Relativistic Corrections:          scalar (ZORA,MAPA)                       

    Nuclear Charge Density Model:      Point Charge Nuclei                      
    Core Treatment:                    Frozen Orbital(s)                        

    Hyperfine or Zeeman Interaction:   ---                                      

 Settings for Grimme D3 dispersion correction

      damping                        BJ
      s6                          1.000
      s8                          1.218
      a1                          0.414
      a2                          4.859

 Other (technical) parameters

      alpha                      14.000
      version                         4
 


 Fragment File(s)
 ----------------
 Pdcycle:
         file : ./ts_dppBz.Pdcycle.results/adf.rkf
         jobid: 97481156
         title: *** adf ***
 ligand:
         file : ./ts_dppBz.ligand.results/adf.rkf
         jobid: 463777853
         title: *** adf ***



 ===============
 G E O M E T R Y  ***  3D  Molecule  ***
 ===============
  

 ATOMS
 =====                            X Y Z                    CHARGE
                                (Angstrom)             Nucl     +Core       At.Mass
                       --------------------------    ----------------       -------
    1  C               1.6044    0.5195    1.0100      6.00      6.00       12.0000
    2  C               1.4538    1.2172    2.2339      6.00      6.00       12.0000
    3  H               0.6721    0.9262    2.9384      1.00      1.00        1.0078
    4  C               2.2340    2.3377    2.4622      6.00      6.00       12.0000
    5  H               2.0808    2.9485    3.3552      1.00      1.00        1.0078
    6  C               3.2240    2.7503    1.5448      6.00      6.00       12.0000
    7  C               3.5124    1.9498    0.4449      6.00      6.00       12.0000
    8  H               4.3480    2.1700   -0.2171      1.00      1.00        1.0078
    9  C               2.7437    0.7989    0.2080      6.00      6.00       12.0000
   10  C               3.0583   -0.3061   -0.6623      6.00      6.00       12.0000
   11  C               3.9233   -0.3502   -1.7560      6.00      6.00       12.0000
   12  C               4.1303   -1.5341   -2.4499      6.00      6.00       12.0000
   13  C               3.4518   -2.6932   -2.0618      6.00      6.00       12.0000
   14  C               2.5656   -2.6753   -0.9869      6.00      6.00       12.0000
   15  C               2.3849   -1.4957   -0.2585      6.00      6.00       12.0000
   16  N               1.4960   -1.2891    0.8056      7.00      7.00       14.0031
   17  S               1.4332   -2.2193    2.1993     16.00     16.00       31.9721
   18  O               0.3444   -1.6462    2.9782      8.00      8.00       15.9949
   19  O               1.4828   -3.6391    1.9116      8.00      8.00       15.9949
   20  C               3.0013   -1.7506    2.9655      6.00      6.00       12.0000
   21  Cl              3.2247   -2.5739    4.5029     17.00     17.00       34.9689
   22  H               2.9807   -0.6617    3.1104      1.00      1.00        1.0078
   23  H               3.7965   -2.0382    2.2642      1.00      1.00        1.0078
   24  F               1.8756   -3.7767   -0.7402      9.00      9.00       18.9984
   25  F               3.6135   -3.8050   -2.7620      9.00      9.00       18.9984
   26  F               4.9414   -1.5708   -3.4954      9.00      9.00       18.9984
   27  F               4.5515    0.7500   -2.1720      9.00      9.00       18.9984
   28  O               3.8690    3.9036    1.8454      8.00      8.00       15.9949
   29  C               4.8049    4.3864    0.9276      6.00      6.00       12.0000
   30  H               4.3574    4.5291   -0.0735      1.00      1.00        1.0078
   31  H               5.6760    3.7131    0.8284      1.00      1.00        1.0078
   32  H               5.1531    5.3559    1.3070      1.00      1.00        1.0078
   33  Pd             -0.1796   -0.1478    0.2677     46.00     46.00      105.9035
   34  P              -2.2634   -1.1118   -0.3301     15.00     15.00       30.9738
   35  P              -1.0693    1.7194   -0.7029     15.00     15.00       30.9738
   36  C              -2.1956    1.1056   -2.0088      6.00      6.00       12.0000
   37  C              -2.7208   -0.1977   -1.8598      6.00      6.00       12.0000
   38  C              -2.0828    2.7566    0.3924      6.00      6.00       12.0000
   39  C              -3.4635    2.9017    0.2282      6.00      6.00       12.0000
   40  H              -3.9605    2.4500   -0.6325      1.00      1.00        1.0078
   41  C              -4.2083    3.6081    1.1713      6.00      6.00       12.0000
   42  H              -5.2888    3.7045    1.0426      1.00      1.00        1.0078
   43  C              -3.5803    4.1839    2.2733      6.00      6.00       12.0000
   44  H              -4.1669    4.7368    3.0107      1.00      1.00        1.0078
   45  C              -2.2006    4.0482    2.4369      6.00      6.00       12.0000
   46  H              -1.7035    4.4948    3.3013      1.00      1.00        1.0078
   47  C              -1.4541    3.3294    1.5089      6.00      6.00       12.0000
   48  H              -0.3779    3.2001    1.6527      1.00      1.00        1.0078
   49  C               0.0982    2.8386   -1.5321      6.00      6.00       12.0000
   50  C               1.1378    2.2352   -2.2543      6.00      6.00       12.0000
   51  H               1.1782    1.1444   -2.3271      1.00      1.00        1.0078
   52  C               2.1237    3.0144   -2.8509      6.00      6.00       12.0000
   53  H               2.9384    2.5318   -3.3945      1.00      1.00        1.0078
   54  C               2.0883    4.4027   -2.7168      6.00      6.00       12.0000
   55  H               2.8694    5.0156   -3.1735      1.00      1.00        1.0078
   56  C               1.0585    5.0086   -1.9967      6.00      6.00       12.0000
   57  H               1.0290    6.0959   -1.8924      1.00      1.00        1.0078
   58  C               0.0638    4.2319   -1.4051      6.00      6.00       12.0000
   59  H              -0.7368    4.7083   -0.8345      1.00      1.00        1.0078
   60  C              -2.6077   -2.8624   -0.6973      6.00      6.00       12.0000
   61  C              -1.5095   -3.6511   -1.0627      6.00      6.00       12.0000
   62  H              -0.5090   -3.2130   -1.0855      1.00      1.00        1.0078
   63  C              -1.6822   -5.0012   -1.3572      6.00      6.00       12.0000
   64  H              -0.8155   -5.6075   -1.6297      1.00      1.00        1.0078
   65  C              -2.9504   -5.5744   -1.2775      6.00      6.00       12.0000
   66  H              -3.0855   -6.6358   -1.4991      1.00      1.00        1.0078
   67  C              -4.0448   -4.7984   -0.8937      6.00      6.00       12.0000
   68  H              -5.0359   -5.2516   -0.8133      1.00      1.00        1.0078
   69  C              -3.8767   -3.4470   -0.6000      6.00      6.00       12.0000
   70  H              -4.7323   -2.8483   -0.2782      1.00      1.00        1.0078
   71  C              -3.5483   -0.5772    0.8537      6.00      6.00       12.0000
   72  C              -4.8493   -0.2315    0.4693      6.00      6.00       12.0000
   73  H              -5.1436   -0.2948   -0.5818      1.00      1.00        1.0078
   74  C              -5.7623    0.2223    1.4184      6.00      6.00       12.0000
   75  H              -6.7756    0.4936    1.1121      1.00      1.00        1.0078
   76  C              -5.3782    0.3443    2.7535      6.00      6.00       12.0000
   77  H              -6.0911    0.7128    3.4951      1.00      1.00        1.0078
   78  C              -4.0828    0.0037    3.1410      6.00      6.00       12.0000
   79  H              -3.7775    0.1038    4.1850      1.00      1.00        1.0078
   80  C              -3.1680   -0.4571    2.1968      6.00      6.00       12.0000
   81  H              -2.1467   -0.7169    2.4947      1.00      1.00        1.0078
   82  C              -3.5257   -0.7302   -2.8706      6.00      6.00       12.0000
   83  C              -3.8195    0.0220   -4.0075      6.00      6.00       12.0000
   84  C              -3.3106    1.3128   -4.1468      6.00      6.00       12.0000
   85  C              -2.4980    1.8516   -3.1510      6.00      6.00       12.0000
   86  H              -2.0772    2.8539   -3.2661      1.00      1.00        1.0078
   87  H              -4.4445   -0.4077   -4.7940      1.00      1.00        1.0078
   88  H              -3.5364    1.8984   -5.0409      1.00      1.00        1.0078
   89  H              -3.9123   -1.7478   -2.7726      1.00      1.00        1.0078


 FRAGMENTS
 =========                                     Atoms in this Fragment     Cart. coord.s (Angstrom)
                                               -------------------------------------------------------
    1  Pdcycle                                           1  C            1.6044    0.5195    1.0100
                                                         2  C            1.4538    1.2172    2.2339
                                                         4  C            2.2340    2.3377    2.4622
                                                         6  C            3.2240    2.7503    1.5448
                                                         7  C            3.5124    1.9498    0.4449
                                                         9  C            2.7437    0.7989    0.2080
                                                        10  C            3.0583   -0.3061   -0.6623
                                                        11  C            3.9233   -0.3502   -1.7560
                                                        12  C            4.1303   -1.5341   -2.4499
                                                        13  C            3.4518   -2.6932   -2.0618
                                                        14  C            2.5656   -2.6753   -0.9869
                                                        15  C            2.3849   -1.4957   -0.2585
                                                        20  C            3.0013   -1.7506    2.9655
                                                        29  C            4.8049    4.3864    0.9276
                                                         3  H            0.6721    0.9262    2.9384
                                                         5  H            2.0808    2.9485    3.3552
                                                         8  H            4.3480    2.1700   -0.2171
                                                        22  H            2.9807   -0.6617    3.1104
                                                        23  H            3.7965   -2.0382    2.2642
                                                        30  H            4.3574    4.5291   -0.0735
                                                        31  H            5.6760    3.7131    0.8284
                                                        32  H            5.1531    5.3559    1.3070
                                                        16  N            1.4960   -1.2891    0.8056
                                                        17  S            1.4332   -2.2193    2.1993
                                                        18  O            0.3444   -1.6462    2.9782
                                                        19  O            1.4828   -3.6391    1.9116
                                                        28  O            3.8690    3.9036    1.8454
                                                        21  Cl           3.2247   -2.5739    4.5029
                                                        24  F            1.8756   -3.7767   -0.7402
                                                        25  F            3.6135   -3.8050   -2.7620
                                                        26  F            4.9414   -1.5708   -3.4954
                                                        27  F            4.5515    0.7500   -2.1720
                                                        33  Pd          -0.1796   -0.1478    0.2677
    2  ligand                                           34  P           -2.2634   -1.1118   -0.3301
                                                        35  P           -1.0693    1.7194   -0.7029
                                                        36  C           -2.1956    1.1056   -2.0088
                                                        37  C           -2.7208   -0.1977   -1.8598
                                                        38  C           -2.0828    2.7566    0.3924
                                                        39  C           -3.4635    2.9017    0.2282
                                                        41  C           -4.2083    3.6081    1.1713
                                                        43  C           -3.5803    4.1839    2.2733
                                                        45  C           -2.2006    4.0482    2.4369
                                                        47  C           -1.4541    3.3294    1.5089
                                                        49  C            0.0982    2.8386   -1.5321
                                                        50  C            1.1378    2.2352   -2.2543
                                                        52  C            2.1237    3.0144   -2.8509
                                                        54  C            2.0883    4.4027   -2.7168
                                                        56  C            1.0585    5.0086   -1.9967
                                                        58  C            0.0638    4.2319   -1.4051
                                                        60  C           -2.6077   -2.8624   -0.6973
                                                        61  C           -1.5095   -3.6511   -1.0627
                                                        63  C           -1.6822   -5.0012   -1.3572
                                                        65  C           -2.9504   -5.5744   -1.2775
                                                        67  C           -4.0448   -4.7984   -0.8937
                                                        69  C           -3.8767   -3.4470   -0.6000
                                                        71  C           -3.5483   -0.5772    0.8537
                                                        72  C           -4.8493   -0.2315    0.4693
                                                        74  C           -5.7623    0.2223    1.4184
                                                        76  C           -5.3782    0.3443    2.7535
                                                        78  C           -4.0828    0.0037    3.1410
                                                        80  C           -3.1680   -0.4571    2.1968
                                                        82  C           -3.5257   -0.7302   -2.8706
                                                        83  C           -3.8195    0.0220   -4.0075
                                                        84  C           -3.3106    1.3128   -4.1468
                                                        85  C           -2.4980    1.8516   -3.1510
                                                        40  H           -3.9605    2.4500   -0.6325
                                                        42  H           -5.2888    3.7045    1.0426
                                                        44  H           -4.1669    4.7368    3.0107
                                                        46  H           -1.7035    4.4948    3.3013
                                                        48  H           -0.3779    3.2001    1.6527
                                                        51  H            1.1782    1.1444   -2.3271
                                                        53  H            2.9384    2.5318   -3.3945
                                                        55  H            2.8694    5.0156   -3.1735
                                                        57  H            1.0290    6.0959   -1.8924
                                                        59  H           -0.7368    4.7083   -0.8345
                                                        62  H           -0.5090   -3.2130   -1.0855
                                                        64  H           -0.8155   -5.6075   -1.6297
                                                        66  H           -3.0855   -6.6358   -1.4991
                                                        68  H           -5.0359   -5.2516   -0.8133
                                                        70  H           -4.7323   -2.8483   -0.2782
                                                        73  H           -5.1436   -0.2948   -0.5818
                                                        75  H           -6.7756    0.4936    1.1121
                                                        77  H           -6.0911    0.7128    3.4951
                                                        79  H           -3.7775    0.1038    4.1850
                                                        81  H           -2.1467   -0.7169    2.4947
                                                        86  H           -2.0772    2.8539   -3.2661
                                                        87  H           -4.4445   -0.4077   -4.7940
                                                        88  H           -3.5364    1.8984   -5.0409
                                                        89  H           -3.9123   -1.7478   -2.7726



 =====================================
 S Y M M E T R Y ,   E L E C T R O N S
 =====================================
  
 Symmetry: NOSYM

 Irreducible Representations, including subspecies
 -------------------------------------------------
 A


 Configuration of Valence Electrons
 ==================================
 ( determined in the SCF procedure )

 Total:   472

 Net Charge: 0 (Nuclei minus Electrons)

 Aufbau principle for MO occupations will be applied through SCF cycle no.     150
 Thereafter, the program will assign electrons to MOs that are spatially
 similar to the occupied MOs in a "reference" cycle ("KeepOrbitals").
 The reference cycle is always the PREVIOUS cycle: it will evolve with
 the SCF procedure.
1
 ***************************************************************************************************



                                      ****************************************
                                      *  B U I L D : (Fragments, Functions)  *
                                      ****************************************
  

 The individual fragments are copies of the corresponding 'Master' fragments defined on the fragment files.
 However, they may have been rotated (and translated) with respect to the Master. The local coordinate axes
 of each fragment (which define for instance the spatial orientation in the current molecule of a fragment
 P:x orbital) are not necessarily those of the molecule.
 The local frame (if different from the molecular one) is printed to enable an interpretation of the expan-
 sion of an MO in Fragment Orbitals.



                                           *****************************
                                           *  Fragment Type : Pdcycle  *
                                           *****************************
  

 Fragment no.    1   (in the list of all fragments)
 -----------------
 Local Coordinate Axes:
   x=    0.999945   -0.010504    0.000484
   y=    0.010503    0.999945    0.000600
   z=   -0.000491   -0.000595    1.000000
 The actual fragment is obtained from the Master by a rotation over    0.60 degrees
 around the axis :  0.057 -0.046 -0.997

 Check Atomic Coordinates:

                  Master (on file)          After Computed Tranformation               As specified on Input
           ----------------------------     ----------------------------     ---------------------------------
     1)     1.60434   0.54147   1.00903      1.60440   0.51949   1.01005       1   1.60440   0.51949   1.01005
     2)     1.44699   1.23830   2.23257      1.45379   1.21721   2.23394       2   1.45379   1.21721   2.23394
     3)     2.21554   2.36707   2.45981      2.23404   2.33770   2.46222       4   2.23404   2.33770   2.46222
     4)     3.20064   2.78949   1.54169      3.22397   2.75030   1.54484       6   3.22397   2.75030   1.54484
     5)     3.49688   1.99145   0.44210      3.51235   1.94984   0.44491       7   3.51235   1.94984   0.44491
     6)     2.74026   0.83238   0.20623      2.74371   0.79892   0.20798       9   2.74371   0.79892   0.20798
     7)     3.06600  -0.26979  -0.66358      3.05829  -0.30608  -0.66234      10   3.05829  -0.30608  -0.66234
     8)     3.93092  -0.30550  -1.75760      3.92332  -0.35023  -1.75596      11   3.92332  -0.35023  -1.75596
     9)     4.14994  -1.48755  -2.45099      4.13025  -1.53410  -2.44995      12   4.13025  -1.53410  -2.44995
    10)     3.48385  -2.65347  -2.06185      3.45177  -2.69319  -2.06183      13   3.45177  -2.69319  -2.06183
    11)     2.59804  -2.64429  -0.98652      2.56557  -2.67535  -0.98693      14   2.56557  -2.67535  -0.98693
    12)     2.40538  -1.46613  -0.25870      2.38494  -1.49566  -0.25849      15   2.38494  -1.49566  -0.25849
    13)     3.02599  -1.71263   2.96516      3.00134  -1.75059   2.96552      20   3.00134  -1.75059   2.96552
    14)     4.76395   4.44171   0.92270      4.80485   4.38637   0.92759      29   4.80485   4.38637   0.92759
    15)     0.66872   0.93949   2.93755      0.67207   0.92617   2.93836       3   0.67207   0.92617   2.93836
    16)     2.05636   2.97672   3.35250      2.08083   2.94846   3.35521       5   2.08083   2.94846   3.35521
    17)     4.32984   2.22002  -0.22049      4.34799   2.17005  -0.21714       8   4.34799   2.17005  -0.21714
    18)     2.99397  -0.62394   3.10943      2.98068  -0.66170   3.11043      22   2.98068  -0.66170   3.11043
    19)     3.82374  -1.99229   2.26362      3.79645  -2.03819   2.26420      23   3.79645  -2.03819   2.26420
    20)     4.31449   4.57917  -0.07829      4.35735   4.52914  -0.07353      30   4.35735   4.52914  -0.07353
    21)     5.64205   3.77756   0.82349      5.67597   3.71310   0.82842      31   5.67597   3.71310   0.82842
    22)     5.10215   5.41507   1.30133      5.15307   5.35591   1.30697      32   5.15307   5.35591   1.30697
    23)     1.51488  -1.26828   0.80566      1.49604  -1.28910   0.80556      16   1.49604  -1.28910   0.80556
    24)     1.46249  -2.19824   2.20004      1.43321  -2.21929   2.19935      17   1.43321  -2.21929   2.19935
    25)     0.36806  -1.63618   2.97911      0.34435  -1.64623   2.97823      18   0.34435  -1.64623   2.97823
    26)     1.52688  -3.61764   1.91310      1.48282  -3.63911   1.91159      19   1.48282  -3.63911   1.91159
    27)     3.83369   3.94969   1.84123      3.86902   3.90361   1.84537      28   3.86902   3.90361   1.84537
    28)     3.25871  -2.53261   4.50291      3.22468  -2.57388   4.50289      21   3.22468  -2.57388   4.50289
    29)     1.91984  -3.75268  -0.73878      1.87565  -3.77670  -0.74018      24   1.87565  -3.77670  -0.74018
    30)     3.65693  -3.76393  -2.76146      3.61351  -3.80499  -2.76202      25   3.61351  -3.80499  -2.76202
    31)     4.96092  -1.51637  -3.49683      4.94140  -1.57082  -3.49542      26   4.94140  -1.57082  -3.49542
    32)     4.54735   0.80104  -2.17463      4.55155   0.75002  -2.17202      27   4.55155   0.75002  -2.17202
    33)    -0.17287  -0.14501   0.26792     -0.17955  -0.14785   0.26767      33  -0.17955  -0.14785   0.26767



                                            ****************************
                                            *  Fragment Type : ligand  *
                                            ****************************
  

 Fragment no.    2   (in the list of all fragments)
 -----------------
 The local coordinate frame is identical to the molecular frame.

 Check Atomic Coordinates:

                  Master (on file)          After Computed Tranformation               As specified on Input
           ----------------------------     ----------------------------     ---------------------------------
     1)    -2.26338  -1.11182  -0.33014     -2.26338  -1.11182  -0.33014      34  -2.26338  -1.11182  -0.33014
     2)    -1.06930   1.71939  -0.70291     -1.06930   1.71939  -0.70291      35  -1.06930   1.71939  -0.70291
     3)    -2.19560   1.10556  -2.00882     -2.19560   1.10556  -2.00882      36  -2.19560   1.10556  -2.00882
     4)    -2.72083  -0.19771  -1.85984     -2.72083  -0.19771  -1.85984      37  -2.72083  -0.19771  -1.85984
     5)    -2.08280   2.75662   0.39235     -2.08280   2.75662   0.39235      38  -2.08280   2.75662   0.39235
     6)    -3.46348   2.90173   0.22824     -3.46348   2.90173   0.22824      39  -3.46348   2.90173   0.22824
     7)    -4.20828   3.60807   1.17126     -4.20828   3.60807   1.17126      41  -4.20828   3.60807   1.17126
     8)    -3.58027   4.18387   2.27327     -3.58027   4.18387   2.27327      43  -3.58027   4.18387   2.27327
     9)    -2.20059   4.04817   2.43688     -2.20059   4.04817   2.43688      45  -2.20059   4.04817   2.43688
    10)    -1.45414   3.32940   1.50893     -1.45414   3.32940   1.50893      47  -1.45414   3.32940   1.50893
    11)     0.09820   2.83862  -1.53206      0.09820   2.83862  -1.53206      49   0.09820   2.83862  -1.53206
    12)     1.13779   2.23515  -2.25430      1.13779   2.23515  -2.25430      50   1.13779   2.23515  -2.25430
    13)     2.12365   3.01436  -2.85089      2.12365   3.01436  -2.85089      52   2.12365   3.01436  -2.85089
    14)     2.08832   4.40273  -2.71676      2.08832   4.40273  -2.71676      54   2.08832   4.40273  -2.71676
    15)     1.05847   5.00859  -1.99670      1.05847   5.00859  -1.99670      56   1.05847   5.00859  -1.99670
    16)     0.06383   4.23194  -1.40513      0.06383   4.23194  -1.40513      58   0.06383   4.23194  -1.40513
    17)    -2.60773  -2.86243  -0.69725     -2.60773  -2.86243  -0.69725      60  -2.60773  -2.86243  -0.69725
    18)    -1.50951  -3.65108  -1.06268     -1.50951  -3.65108  -1.06268      61  -1.50951  -3.65108  -1.06268
    19)    -1.68216  -5.00121  -1.35720     -1.68216  -5.00121  -1.35720      63  -1.68216  -5.00121  -1.35720
    20)    -2.95043  -5.57440  -1.27752     -2.95043  -5.57440  -1.27752      65  -2.95043  -5.57440  -1.27752
    21)    -4.04483  -4.79842  -0.89372     -4.04483  -4.79842  -0.89372      67  -4.04483  -4.79842  -0.89372
    22)    -3.87668  -3.44696  -0.60004     -3.87668  -3.44696  -0.60004      69  -3.87668  -3.44696  -0.60004
    23)    -3.54832  -0.57721   0.85372     -3.54832  -0.57721   0.85372      71  -3.54832  -0.57721   0.85372
    24)    -4.84934  -0.23154   0.46927     -4.84934  -0.23154   0.46927      72  -4.84934  -0.23154   0.46927
    25)    -5.76229   0.22228   1.41844     -5.76229   0.22228   1.41844      74  -5.76229   0.22228   1.41844
    26)    -5.37822   0.34428   2.75353     -5.37822   0.34428   2.75353      76  -5.37822   0.34428   2.75353
    27)    -4.08285   0.00374   3.14102     -4.08285   0.00374   3.14102      78  -4.08285   0.00374   3.14102
    28)    -3.16797  -0.45705   2.19684     -3.16797  -0.45705   2.19684      80  -3.16797  -0.45705   2.19684
    29)    -3.52566  -0.73021  -2.87060     -3.52566  -0.73021  -2.87060      82  -3.52566  -0.73021  -2.87060
    30)    -3.81954   0.02196  -4.00748     -3.81954   0.02196  -4.00748      83  -3.81954   0.02196  -4.00748
    31)    -3.31063   1.31277  -4.14678     -3.31063   1.31277  -4.14678      84  -3.31063   1.31277  -4.14678
    32)    -2.49804   1.85163  -3.15102     -2.49804   1.85163  -3.15102      85  -2.49804   1.85163  -3.15102
    33)    -3.96050   2.44995  -0.63255     -3.96050   2.44995  -0.63255      40  -3.96050   2.44995  -0.63255
    34)    -5.28877   3.70453   1.04261     -5.28877   3.70453   1.04261      42  -5.28877   3.70453   1.04261
    35)    -4.16690   4.73685   3.01068     -4.16690   4.73685   3.01068      44  -4.16690   4.73685   3.01068
    36)    -1.70355   4.49478   3.30134     -1.70355   4.49478   3.30134      46  -1.70355   4.49478   3.30134
    37)    -0.37787   3.20012   1.65273     -0.37787   3.20012   1.65273      48  -0.37787   3.20012   1.65273
    38)     1.17823   1.14440  -2.32709      1.17823   1.14440  -2.32709      51   1.17823   1.14440  -2.32709
    39)     2.93840   2.53180  -3.39451      2.93840   2.53180  -3.39451      53   2.93840   2.53180  -3.39451
    40)     2.86936   5.01557  -3.17347      2.86936   5.01557  -3.17347      55   2.86936   5.01557  -3.17347
    41)     1.02897   6.09586  -1.89237      1.02897   6.09586  -1.89237      57   1.02897   6.09586  -1.89237
    42)    -0.73676   4.70828  -0.83447     -0.73676   4.70828  -0.83447      59  -0.73676   4.70828  -0.83447
    43)    -0.50900  -3.21295  -1.08545     -0.50900  -3.21295  -1.08545      62  -0.50900  -3.21295  -1.08545
    44)    -0.81552  -5.60753  -1.62972     -0.81552  -5.60753  -1.62972      64  -0.81552  -5.60753  -1.62972
    45)    -3.08546  -6.63580  -1.49913     -3.08546  -6.63580  -1.49913      66  -3.08546  -6.63580  -1.49913
    46)    -5.03589  -5.25155  -0.81334     -5.03589  -5.25155  -0.81334      68  -5.03589  -5.25155  -0.81334
    47)    -4.73227  -2.84829  -0.27821     -4.73227  -2.84829  -0.27821      70  -4.73227  -2.84829  -0.27821
    48)    -5.14359  -0.29481  -0.58176     -5.14359  -0.29481  -0.58176      73  -5.14359  -0.29481  -0.58176
    49)    -6.77559   0.49361   1.11211     -6.77559   0.49361   1.11211      75  -6.77559   0.49361   1.11211
    50)    -6.09108   0.71285   3.49512     -6.09108   0.71285   3.49512      77  -6.09108   0.71285   3.49512
    51)    -3.77750   0.10377   4.18499     -3.77750   0.10377   4.18499      79  -3.77750   0.10377   4.18499
    52)    -2.14669  -0.71688   2.49472     -2.14669  -0.71688   2.49472      81  -2.14669  -0.71688   2.49472
    53)    -2.07715   2.85392  -3.26610     -2.07715   2.85392  -3.26610      86  -2.07715   2.85392  -3.26610
    54)    -4.44452  -0.40770  -4.79401     -4.44452  -0.40770  -4.79401      87  -4.44452  -0.40770  -4.79401
    55)    -3.53645   1.89841  -5.04092     -3.53645   1.89841  -5.04092      88  -3.53645   1.89841  -5.04092
    56)    -3.91230  -1.74785  -2.77261     -3.91230  -1.74785  -2.77261      89  -3.91230  -1.74785  -2.77261

 Total nr. of (C)SFOs (summation over all irreps) :  1354

 Specify PRINT SFO in the input file to get a full list

 Nr. of SFOs for ir.rep.           A :  1354



 ================================
 (Slater-type)  F U N C T I O N S  ***  (Basis and Fit)  ***
 ================================
  

 Atom Type    1  (C)
 ==============

 Valence Basis Sets:   9
 -----------------------
   1 S    7.680000
   1 S    5.000000
   2 S    1.280000
   2 S    2.100000
   2 S    4.600000
   2 P    0.820000
   2 P    1.480000
   2 P    2.940000
   3 D    2.200000

 Charge Fitting Sets (for the computation of the Coulomb Potential):  22
 -----------------------------------------------------------------------
   1 S   15.360000
   2 S   17.530000
   2 S   12.070000
   2 S    8.310000
   2 S    5.730000
   3 S    5.780000
   3 S    4.220000
   3 S    3.080000
   3 S    2.250000
   3 S    1.640000
   2 P    9.880000
   2 P    5.800000
   3 P    5.050000
   3 P    3.230000
   3 P    2.060000
   3 D    7.200000
   3 D    4.400000
   3 D    2.690000
   3 D    1.640000
   4 F    5.400000
   4 F    3.550000
   5 G    4.500000

 Atom Type    2  (H)
 ==============

 Valence Basis Sets:   4
 -----------------------
   1 S    0.690000
   1 S    0.920000
   1 S    1.580000
   2 P    1.250000

 Charge Fitting Sets (for the computation of the Coulomb Potential):  11
 -----------------------------------------------------------------------
   1 S    3.160000
   1 S    2.090000
   1 S    1.380000
   2 S    1.500000
   2 P    4.000000
   2 P    2.650000
   2 P    1.750000
   3 D    4.000000
   3 D    2.500000
   4 F    3.000000
   5 G    4.000000

 Atom Type    3  (N)
 ==============

 Valence Basis Sets:   9
 -----------------------
   1 S    8.740000
   1 S    5.900000
   2 S    5.150000
   2 S    2.500000
   2 S    1.500000
   2 P    3.680000
   2 P    1.880000
   2 P    1.000000
   3 D    2.200000

 Charge Fitting Sets (for the computation of the Coulomb Potential):  22
 -----------------------------------------------------------------------
   1 S   17.480000
   2 S   20.150000
   2 S   13.990000
   2 S    9.710000
   2 S    6.740000
   3 S    6.860000
   3 S    5.040000
   3 S    3.700000
   3 S    2.720000
   3 S    2.000000
   2 P   11.320000
   2 P    6.730000
   3 P    5.920000
   3 P    3.820000
   3 P    2.460000
   3 D    8.100000
   3 D    5.080000
   3 D    3.190000
   3 D    2.000000
   4 F    5.800000
   4 F    3.600000
   5 G    4.500000

 Atom Type    4  (S)
 ==============

 Valence Basis Sets:  13
 -----------------------
   1 S   19.400000
   1 S   14.350000
   2 S    5.900000
   2 S    4.250000
   2 P    8.050000
   2 P    4.550000
   3 S    3.450000
   3 S    2.250000
   3 S    1.500000
   3 P    2.650000
   3 P    1.600000
   3 P    1.000000
   3 D    2.100000

 Charge Fitting Sets (for the computation of the Coulomb Potential):  30
 -----------------------------------------------------------------------
   1 S   38.800000
   1 S   23.350000
   2 S   26.020000
   2 S   17.570000
   3 S   17.420000
   3 S   12.500000
   3 S    8.980000
   4 S    8.520000
   4 S    6.360000
   4 S    4.750000
   5 S    4.420000
   5 S    3.390000
   5 S    2.600000
   5 S    2.000000
   2 P   27.450000
   3 P   20.250000
   4 P   14.920000
   4 P    8.780000
   5 P    6.520000
   5 P    4.040000
   5 P    2.500000
   3 D   20.900000
   4 D   14.560000
   4 D    8.130000
   5 D    5.740000
   5 D    3.390000
   5 D    2.000000
   4 F    5.000000
   4 F    3.000000
   5 G    3.620000

 Atom Type    5  (O)
 ==============

 Valence Basis Sets:   9
 -----------------------
   1 S    9.800000
   1 S    6.800000
   2 S    7.580000
   2 S    2.880000
   2 S    1.720000
   2 P    4.080000
   2 P    2.080000
   2 P    1.120000
   3 D    2.000000

 Charge Fitting Sets (for the computation of the Coulomb Potential):  22
 -----------------------------------------------------------------------
   1 S   19.600000
   2 S   22.600000
   2 S   15.680000
   2 S   10.890000
   2 S    7.560000
   3 S    7.690000
   3 S    5.650000
   3 S    4.150000
   3 S    3.050000
   3 S    2.240000
   2 P   12.860000
   2 P    7.680000
   3 P    6.780000
   3 P    4.390000
   3 P    2.840000
   3 D    8.800000
   3 D    5.580000
   3 D    3.530000
   3 D    2.240000
   4 F    6.200000
   4 F    3.700000
   5 G    4.500000

 Atom Type    6  (Cl)
 ==============

 Valence Basis Sets:  13
 -----------------------
   1 S   20.300000
   1 S   15.250000
   2 S    6.250000
   2 S    4.450000
   2 P    8.850000
   2 P    5.050000
   3 S    3.450000
   3 S    2.300000
   3 S    1.600000
   3 P    3.350000
   3 P    2.050000
   3 P    1.200000
   3 D    2.000000

 Charge Fitting Sets (for the computation of the Coulomb Potential):  30
 -----------------------------------------------------------------------
   1 S   40.600000
   1 S   24.830000
   2 S   28.080000
   2 S   19.200000
   3 S   19.250000
   3 S   13.970000
   3 S   10.130000
   4 S    9.710000
   4 S    7.320000
   4 S    5.510000
   5 S    5.170000
   5 S    4.000000
   5 S    3.100000
   5 S    2.400000
   2 P   29.150000
   3 P   21.740000
   4 P   16.160000
   4 P    9.600000
   5 P    7.180000
   5 P    4.480000
   5 P    2.800000
   3 D   21.950000
   4 D   15.750000
   4 D    9.040000
   5 D    6.550000
   5 D    3.960000
   5 D    2.400000
   4 F    5.000000
   4 F    3.000000
   5 G    3.500000

 Atom Type    7  (F)
 ==============

 Valence Basis Sets:   9
 -----------------------
   1 S   10.880000
   1 S    7.700000
   2 S    3.240000
   2 S    1.940000
   2 S    0.740000
   2 P    4.540000
   2 P    2.300000
   2 P    1.240000
   3 D    2.000000

 Charge Fitting Sets (for the computation of the Coulomb Potential):  23
 -----------------------------------------------------------------------
   1 S   21.760000
   2 S   24.390000
   2 S   16.560000
   2 S   11.240000
   2 S    7.630000
   3 S    7.600000
   3 S    5.480000
   3 S    3.950000
   3 S    2.850000
   3 S    2.050000
   3 S    1.480000
   2 P   14.400000
   2 P    7.530000
   3 P    5.900000
   3 P    3.420000
   3 P    1.980000
   3 D    9.700000
   3 D    6.160000
   3 D    3.910000
   3 D    2.480000
   4 F    6.500000
   4 F    3.750000
   5 G    4.500000

 Atom Type    8  (Pd)
 ==============

 Valence Basis Sets:  26
 -----------------------
   1 S  306.000000
   1 S   76.400000
   1 S   45.900000
   2 S   53.800000
   2 S   19.550000
   3 S   10.150000
   3 S    6.650000
   4 S    6.150000
   4 S    3.900000
   5 S    2.500000
   5 S    1.450000
   5 S    0.850000
   2 P   29.100000
   2 P   18.750000
   3 P   11.250000
   3 P    8.100000
   4 P    5.950000
   4 P    3.950000
   4 P    2.700000
   3 D   17.550000
   3 D   10.450000
   3 D    6.900000
   4 D    4.250000
   4 D    2.200000
   4 D    1.100000
   5 P    1.450000

 Charge Fitting Sets (for the computation of the Coulomb Potential):  58
 -----------------------------------------------------------------------
   1 S  612.000000
   1 S  446.101000
   1 S  325.174000
   1 S  237.027000
   1 S  172.774000
   1 S  125.939000
   1 S   91.800000
   1 S   53.670000
   2 S   58.190000
   2 S   38.430000
   3 S   37.300000
   3 S   26.280000
   4 S   24.500000
   4 S   18.000000
   5 S   16.470000
   5 S   12.460000
   6 S   11.300000
   6 S    8.740000
   7 S    7.890000
   7 S    6.210000
   8 S    5.590000
   8 S    4.470000
   8 S    3.570000
   9 S    3.210000
   9 S    2.600000
   9 S    2.100000
   9 S    1.700000
   2 P   64.650000
   3 P   49.410000
   4 P   37.530000
   5 P   28.620000
   6 P   21.980000
   6 P   14.500000
   7 P   11.220000
   7 P    7.620000
   8 P    5.940000
   8 P    4.130000
   9 P    3.240000
   9 P    2.300000
   3 D   56.350000
   4 D   37.260000
   5 D   25.120000
   6 D   17.230000
   6 D   10.190000
   7 D    7.110000
   7 D    4.360000
   8 D    3.090000
   8 D    1.950000
   4 F   47.900000
   5 F   28.270000
   6 F   17.190000
   6 F    9.040000
   7 F    5.640000
   7 F    3.100000
   5 G   20.900000
   6 G    9.980000
   7 G    4.980000
   7 G    2.200000

 Atom Type    9  (P)
 ==============

 Valence Basis Sets:  13
 -----------------------
   1 S   18.000000
   1 S   13.350000
   2 S    5.600000
   2 S    4.050000
   2 P    7.450000
   2 P    4.100000
   3 S    2.700000
   3 S    1.850000
   3 S    1.300000
   3 P    2.300000
   3 P    1.350000
   3 P    0.850000
   3 D    1.900000

 Charge Fitting Sets (for the computation of the Coulomb Potential):  30
 -----------------------------------------------------------------------
   1 S   36.000000
   1 S   21.450000
   2 S   23.670000
   2 S   15.860000
   3 S   15.600000
   3 S   11.130000
   3 S    7.940000
   4 S    7.490000
   4 S    5.560000
   4 S    4.130000
   5 S    3.810000
   5 S    2.910000
   5 S    2.230000
   5 S    1.700000
   2 P   25.450000
   3 P   18.490000
   4 P   13.440000
   4 P    7.810000
   5 P    5.730000
   5 P    3.510000
   5 P    2.150000
   3 D   19.350000
   4 D   13.230000
   4 D    7.250000
   5 D    5.040000
   5 D    2.930000
   5 D    1.700000
   4 F    5.000000
   4 F    3.000000
   5 G    3.750000

 Atom Type   10  (C)
 ==============

 Valence Basis Sets:   9
 -----------------------
   1 S    7.680000
   1 S    5.000000
   2 S    1.280000
   2 S    2.100000
   2 S    4.600000
   2 P    0.820000
   2 P    1.480000
   2 P    2.940000
   3 D    2.200000

 Charge Fitting Sets (for the computation of the Coulomb Potential):  22
 -----------------------------------------------------------------------
   1 S   15.360000
   2 S   17.530000
   2 S   12.070000
   2 S    8.310000
   2 S    5.730000
   3 S    5.780000
   3 S    4.220000
   3 S    3.080000
   3 S    2.250000
   3 S    1.640000
   2 P    9.880000
   2 P    5.800000
   3 P    5.050000
   3 P    3.230000
   3 P    2.060000
   3 D    7.200000
   3 D    4.400000
   3 D    2.690000
   3 D    1.640000
   4 F    5.400000
   4 F    3.550000
   5 G    4.500000

 Atom Type   11  (H)
 ==============

 Valence Basis Sets:   4
 -----------------------
   1 S    0.690000
   1 S    0.920000
   1 S    1.580000
   2 P    1.250000

 Charge Fitting Sets (for the computation of the Coulomb Potential):  11
 -----------------------------------------------------------------------
   1 S    3.160000
   1 S    2.090000
   1 S    1.380000
   2 S    1.500000
   2 P    4.000000
   2 P    2.650000
   2 P    1.750000
   3 D    4.000000
   3 D    2.500000
   4 F    3.000000
   5 G    4.000000


 BAS: List of all Elementary Cartesian Basis Functions
 =====================================================

 The numbering in the list below (to the right of the function characteristics) is referred
 to in print-outs of MO eigenvectors and Mulliken populations in the BAS representation
 (as contrasted to the SFO representation).

 Notes:
 1. The functions are characterized by a polynomial prefactor (powers of x,y,z and r) and
    an exponential decay factor alpha.
 2. Since the basis sets are specific for an atom TYPE, the individual functions occur on
    all atoms of that type.
 3. The word 'Core' in the left margin signals that it is a Core Function (CF) : not a
    degree of freedom in the valence set, but only used to ensure orthogonalization of
    the other valence basis functions on the frozen Core Orbitals.


 (power of) X  Y  Z  R     Alpha  on Atom
            ==========     =====     ==========

 C                                    1    2    3    4    5    6    7    8    9   10   11   12   13   14
                                  ---------------------------------------------------------------------------
            0  0  0  0     7.680      1   21   41   61   81  101  121  141  161  181  201  221  241  261
            0  0  0  0     5.000      2   22   42   62   82  102  122  142  162  182  202  222  242  262
            0  0  0  1     1.280      3   23   43   63   83  103  123  143  163  183  203  223  243  263
            0  0  0  1     2.100      4   24   44   64   84  104  124  144  164  184  204  224  244  264
            0  0  0  1     4.600      5   25   45   65   85  105  125  145  165  185  205  225  245  265
            1  0  0  0     0.820      6   26   46   66   86  106  126  146  166  186  206  226  246  266
            0  1  0  0     0.820      7   27   47   67   87  107  127  147  167  187  207  227  247  267
            0  0  1  0     0.820      8   28   48   68   88  108  128  148  168  188  208  228  248  268
            1  0  0  0     1.480      9   29   49   69   89  109  129  149  169  189  209  229  249  269
            0  1  0  0     1.480     10   30   50   70   90  110  130  150  170  190  210  230  250  270
            0  0  1  0     1.480     11   31   51   71   91  111  131  151  171  191  211  231  251  271
            1  0  0  0     2.940     12   32   52   72   92  112  132  152  172  192  212  232  252  272
            0  1  0  0     2.940     13   33   53   73   93  113  133  153  173  193  213  233  253  273
            0  0  1  0     2.940     14   34   54   74   94  114  134  154  174  194  214  234  254  274
            2  0  0  0     2.200     15   35   55   75   95  115  135  155  175  195  215  235  255  275
            1  1  0  0     2.200     16   36   56   76   96  116  136  156  176  196  216  236  256  276
            1  0  1  0     2.200     17   37   57   77   97  117  137  157  177  197  217  237  257  277
            0  2  0  0     2.200     18   38   58   78   98  118  138  158  178  198  218  238  258  278
            0  1  1  0     2.200     19   39   59   79   99  119  139  159  179  199  219  239  259  279
            0  0  2  0     2.200     20   40   60   80  100  120  140  160  180  200  220  240  260  280

 H                                   15   16   17   18   19   20   21   22
                                  ---------------------------------------------------------------------------
            0  0  0  0     0.690    281  287  293  299  305  311  317  323
            0  0  0  0     0.920    282  288  294  300  306  312  318  324
            0  0  0  0     1.580    283  289  295  301  307  313  319  325
            1  0  0  0     1.250    284  290  296  302  308  314  320  326
            0  1  0  0     1.250    285  291  297  303  309  315  321  327
            0  0  1  0     1.250    286  292  298  304  310  316  322  328

 N                                   23
                                  ---------------------------------------------------------------------------
            0  0  0  0     8.740    329
            0  0  0  0     5.900    330
            0  0  0  1     5.150    331
            0  0  0  1     2.500    332
            0  0  0  1     1.500    333
            1  0  0  0     3.680    334
            0  1  0  0     3.680    335
            0  0  1  0     3.680    336
            1  0  0  0     1.880    337
            0  1  0  0     1.880    338
            0  0  1  0     1.880    339
            1  0  0  0     1.000    340
            0  1  0  0     1.000    341
            0  0  1  0     1.000    342
            2  0  0  0     2.200    343
            1  1  0  0     2.200    344
            1  0  1  0     2.200    345
            0  2  0  0     2.200    346
            0  1  1  0     2.200    347
            0  0  2  0     2.200    348

 S                                   24
                                  ---------------------------------------------------------------------------
            0  0  0  0    19.400    349
            0  0  0  0    14.350    350
            0  0  0  1     5.900    351
            0  0  0  1     4.250    352
            1  0  0  0     8.050    353
            0  1  0  0     8.050    354
            0  0  1  0     8.050    355
            1  0  0  0     4.550    356
            0  1  0  0     4.550    357
            0  0  1  0     4.550    358
            0  0  0  2     3.450    359
            0  0  0  2     2.250    360
            0  0  0  2     1.500    361
            1  0  0  1     2.650    362
            0  1  0  1     2.650    363
            0  0  1  1     2.650    364
            1  0  0  1     1.600    365
            0  1  0  1     1.600    366
            0  0  1  1     1.600    367
            1  0  0  1     1.000    368
            0  1  0  1     1.000    369
            0  0  1  1     1.000    370
            2  0  0  0     2.100    371
            1  1  0  0     2.100    372
            1  0  1  0     2.100    373
            0  2  0  0     2.100    374
            0  1  1  0     2.100    375
            0  0  2  0     2.100    376

 O                                   25   26   27
                                  ---------------------------------------------------------------------------
            0  0  0  0     9.800    377  397  417
            0  0  0  0     6.800    378  398  418
            0  0  0  1     7.580    379  399  419
            0  0  0  1     2.880    380  400  420
            0  0  0  1     1.720    381  401  421
            1  0  0  0     4.080    382  402  422
            0  1  0  0     4.080    383  403  423
            0  0  1  0     4.080    384  404  424
            1  0  0  0     2.080    385  405  425
            0  1  0  0     2.080    386  406  426
            0  0  1  0     2.080    387  407  427
            1  0  0  0     1.120    388  408  428
            0  1  0  0     1.120    389  409  429
            0  0  1  0     1.120    390  410  430
            2  0  0  0     2.000    391  411  431
            1  1  0  0     2.000    392  412  432
            1  0  1  0     2.000    393  413  433
            0  2  0  0     2.000    394  414  434
            0  1  1  0     2.000    395  415  435
            0  0  2  0     2.000    396  416  436

 Cl                                  28
                                  ---------------------------------------------------------------------------
            0  0  0  0    20.300    437
            0  0  0  0    15.250    438
            0  0  0  1     6.250    439
            0  0  0  1     4.450    440
            1  0  0  0     8.850    441
            0  1  0  0     8.850    442
            0  0  1  0     8.850    443
            1  0  0  0     5.050    444
            0  1  0  0     5.050    445
            0  0  1  0     5.050    446
            0  0  0  2     3.450    447
            0  0  0  2     2.300    448
            0  0  0  2     1.600    449
            1  0  0  1     3.350    450
            0  1  0  1     3.350    451
            0  0  1  1     3.350    452
            1  0  0  1     2.050    453
            0  1  0  1     2.050    454
            0  0  1  1     2.050    455
            1  0  0  1     1.200    456
            0  1  0  1     1.200    457
            0  0  1  1     1.200    458
            2  0  0  0     2.000    459
            1  1  0  0     2.000    460
            1  0  1  0     2.000    461
            0  2  0  0     2.000    462
            0  1  1  0     2.000    463
            0  0  2  0     2.000    464

 F                                   29   30   31   32
                                  ---------------------------------------------------------------------------
            0  0  0  0    10.880    465  485  505  525
            0  0  0  0     7.700    466  486  506  526
            0  0  0  1     3.240    467  487  507  527
            0  0  0  1     1.940    468  488  508  528
            0  0  0  1     0.740    469  489  509  529
            1  0  0  0     4.540    470  490  510  530
            0  1  0  0     4.540    471  491  511  531
            0  0  1  0     4.540    472  492  512  532
            1  0  0  0     2.300    473  493  513  533
            0  1  0  0     2.300    474  494  514  534
            0  0  1  0     2.300    475  495  515  535
            1  0  0  0     1.240    476  496  516  536
            0  1  0  0     1.240    477  497  517  537
            0  0  1  0     1.240    478  498  518  538
            2  0  0  0     2.000    479  499  519  539
            1  1  0  0     2.000    480  500  520  540
            1  0  1  0     2.000    481  501  521  541
            0  2  0  0     2.000    482  502  522  542
            0  1  1  0     2.000    483  503  523  543
            0  0  2  0     2.000    484  504  524  544

 Pd                                  33
                                  ---------------------------------------------------------------------------
            0  0  0  0   306.000    545
            0  0  0  0    76.400    546
            0  0  0  0    45.900    547
            0  0  0  1    53.800    548
            0  0  0  1    19.550    549
            0  0  0  2    10.150    550
            0  0  0  2     6.650    551
            0  0  0  3     6.150    552
            0  0  0  3     3.900    553
            0  0  0  4     2.500    554
            0  0  0  4     1.450    555
            0  0  0  4     0.850    556
            1  0  0  0    29.100    557
            0  1  0  0    29.100    558
            0  0  1  0    29.100    559
            1  0  0  0    18.750    560
            0  1  0  0    18.750    561
            0  0  1  0    18.750    562
            1  0  0  1    11.250    563
            0  1  0  1    11.250    564
            0  0  1  1    11.250    565
            1  0  0  1     8.100    566
            0  1  0  1     8.100    567
            0  0  1  1     8.100    568
            1  0  0  2     5.950    569
            0  1  0  2     5.950    570
            0  0  1  2     5.950    571
            1  0  0  2     3.950    572
            0  1  0  2     3.950    573
            0  0  1  2     3.950    574
            1  0  0  2     2.700    575
            0  1  0  2     2.700    576
            0  0  1  2     2.700    577
            2  0  0  0    17.550    578
            1  1  0  0    17.550    579
            1  0  1  0    17.550    580
            0  2  0  0    17.550    581
            0  1  1  0    17.550    582
            0  0  2  0    17.550    583
            2  0  0  0    10.450    584
            1  1  0  0    10.450    585
            1  0  1  0    10.450    586
            0  2  0  0    10.450    587
            0  1  1  0    10.450    588
            0  0  2  0    10.450    589
            2  0  0  0     6.900    590
            1  1  0  0     6.900    591
            1  0  1  0     6.900    592
            0  2  0  0     6.900    593
            0  1  1  0     6.900    594
            0  0  2  0     6.900    595
            2  0  0  1     4.250    596
            1  1  0  1     4.250    597
            1  0  1  1     4.250    598
            0  2  0  1     4.250    599
            0  1  1  1     4.250    600
            0  0  2  1     4.250    601
            2  0  0  1     2.200    602
            1  1  0  1     2.200    603
            1  0  1  1     2.200    604
            0  2  0  1     2.200    605
            0  1  1  1     2.200    606
            0  0  2  1     2.200    607
            2  0  0  1     1.100    608
            1  1  0  1     1.100    609
            1  0  1  1     1.100    610
            0  2  0  1     1.100    611
            0  1  1  1     1.100    612
            0  0  2  1     1.100    613
            1  0  0  3     1.450    614
            0  1  0  3     1.450    615
            0  0  1  3     1.450    616

 P                                   34   35
                                  ---------------------------------------------------------------------------
            0  0  0  0    18.000    617  645
            0  0  0  0    13.350    618  646
            0  0  0  1     5.600    619  647
            0  0  0  1     4.050    620  648
            1  0  0  0     7.450    621  649
            0  1  0  0     7.450    622  650
            0  0  1  0     7.450    623  651
            1  0  0  0     4.100    624  652
            0  1  0  0     4.100    625  653
            0  0  1  0     4.100    626  654
            0  0  0  2     2.700    627  655
            0  0  0  2     1.850    628  656
            0  0  0  2     1.300    629  657
            1  0  0  1     2.300    630  658
            0  1  0  1     2.300    631  659
            0  0  1  1     2.300    632  660
            1  0  0  1     1.350    633  661
            0  1  0  1     1.350    634  662
            0  0  1  1     1.350    635  663
            1  0  0  1     0.850    636  664
            0  1  0  1     0.850    637  665
            0  0  1  1     0.850    638  666
            2  0  0  0     1.900    639  667
            1  1  0  0     1.900    640  668
            1  0  1  0     1.900    641  669
            0  2  0  0     1.900    642  670
            0  1  1  0     1.900    643  671
            0  0  2  0     1.900    644  672

 C                                   36   37   38   39   40   41   42   43   44   45   46   47   48   49   50
                                     51   52   53   54   55   56   57   58   59   60   61   62   63   64   65
                                  ---------------------------------------------------------------------------
            0  0  0  0     7.680    673  693  713  733  753  773  793  813  833  853  873  893  913  933  953
                                    973  993 1013 1033 1053 1073 1093 1113 1133 1153 1173 1193 1213 1233 1253
            0  0  0  0     5.000    674  694  714  734  754  774  794  814  834  854  874  894  914  934  954
                                    974  994 1014 1034 1054 1074 1094 1114 1134 1154 1174 1194 1214 1234 1254
            0  0  0  1     1.280    675  695  715  735  755  775  795  815  835  855  875  895  915  935  955
                                    975  995 1015 1035 1055 1075 1095 1115 1135 1155 1175 1195 1215 1235 1255
            0  0  0  1     2.100    676  696  716  736  756  776  796  816  836  856  876  896  916  936  956
                                    976  996 1016 1036 1056 1076 1096 1116 1136 1156 1176 1196 1216 1236 1256
            0  0  0  1     4.600    677  697  717  737  757  777  797  817  837  857  877  897  917  937  957
                                    977  997 1017 1037 1057 1077 1097 1117 1137 1157 1177 1197 1217 1237 1257
            1  0  0  0     0.820    678  698  718  738  758  778  798  818  838  858  878  898  918  938  958
                                    978  998 1018 1038 1058 1078 1098 1118 1138 1158 1178 1198 1218 1238 1258
            0  1  0  0     0.820    679  699  719  739  759  779  799  819  839  859  879  899  919  939  959
                                    979  999 1019 1039 1059 1079 1099 1119 1139 1159 1179 1199 1219 1239 1259
            0  0  1  0     0.820    680  700  720  740  760  780  800  820  840  860  880  900  920  940  960
                                    980 1000 1020 1040 1060 1080 1100 1120 1140 1160 1180 1200 1220 1240 1260
            1  0  0  0     1.480    681  701  721  741  761  781  801  821  841  861  881  901  921  941  961
                                    981 1001 1021 1041 1061 1081 1101 1121 1141 1161 1181 1201 1221 1241 1261
            0  1  0  0     1.480    682  702  722  742  762  782  802  822  842  862  882  902  922  942  962
                                    982 1002 1022 1042 1062 1082 1102 1122 1142 1162 1182 1202 1222 1242 1262
            0  0  1  0     1.480    683  703  723  743  763  783  803  823  843  863  883  903  923  943  963
                                    983 1003 1023 1043 1063 1083 1103 1123 1143 1163 1183 1203 1223 1243 1263
            1  0  0  0     2.940    684  704  724  744  764  784  804  824  844  864  884  904  924  944  964
                                    984 1004 1024 1044 1064 1084 1104 1124 1144 1164 1184 1204 1224 1244 1264
            0  1  0  0     2.940    685  705  725  745  765  785  805  825  845  865  885  905  925  945  965
                                    985 1005 1025 1045 1065 1085 1105 1125 1145 1165 1185 1205 1225 1245 1265
            0  0  1  0     2.940    686  706  726  746  766  786  806  826  846  866  886  906  926  946  966
                                    986 1006 1026 1046 1066 1086 1106 1126 1146 1166 1186 1206 1226 1246 1266
            2  0  0  0     2.200    687  707  727  747  767  787  807  827  847  867  887  907  927  947  967
                                    987 1007 1027 1047 1067 1087 1107 1127 1147 1167 1187 1207 1227 1247 1267
            1  1  0  0     2.200    688  708  728  748  768  788  808  828  848  868  888  908  928  948  968
                                    988 1008 1028 1048 1068 1088 1108 1128 1148 1168 1188 1208 1228 1248 1268
            1  0  1  0     2.200    689  709  729  749  769  789  809  829  849  869  889  909  929  949  969
                                    989 1009 1029 1049 1069 1089 1109 1129 1149 1169 1189 1209 1229 1249 1269
            0  2  0  0     2.200    690  710  730  750  770  790  810  830  850  870  890  910  930  950  970
                                    990 1010 1030 1050 1070 1090 1110 1130 1150 1170 1190 1210 1230 1250 1270
            0  1  1  0     2.200    691  711  731  751  771  791  811  831  851  871  891  911  931  951  971
                                    991 1011 1031 1051 1071 1091 1111 1131 1151 1171 1191 1211 1231 1251 1271
            0  0  2  0     2.200    692  712  732  752  772  792  812  832  852  872  892  912  932  952  972
                                    992 1012 1032 1052 1072 1092 1112 1132 1152 1172 1192 1212 1232 1252 1272

 H                                   66   67   68   69   70   71   72   73   74   75   76   77   78   79   80
                                     81   82   83   84   85   86   87   88   89
                                  ---------------------------------------------------------------------------
            0  0  0  0     0.690   1273 1279 1285 1291 1297 1303 1309 1315 1321 1327 1333 1339 1345 1351 1357
                                   1363 1369 1375 1381 1387 1393 1399 1405 1411
            0  0  0  0     0.920   1274 1280 1286 1292 1298 1304 1310 1316 1322 1328 1334 1340 1346 1352 1358
                                   1364 1370 1376 1382 1388 1394 1400 1406 1412
            0  0  0  0     1.580   1275 1281 1287 1293 1299 1305 1311 1317 1323 1329 1335 1341 1347 1353 1359
                                   1365 1371 1377 1383 1389 1395 1401 1407 1413
            1  0  0  0     1.250   1276 1282 1288 1294 1300 1306 1312 1318 1324 1330 1336 1342 1348 1354 1360
                                   1366 1372 1378 1384 1390 1396 1402 1408 1414
            0  1  0  0     1.250   1277 1283 1289 1295 1301 1307 1313 1319 1325 1331 1337 1343 1349 1355 1361
                                   1367 1373 1379 1385 1391 1397 1403 1409 1415
            0  0  1  0     1.250   1278 1284 1290 1296 1302 1308 1314 1320 1326 1332 1338 1344 1350 1356 1362
                                   1368 1374 1380 1386 1392 1398 1404 1410 1416

 Total number of charge fitting functions (nprimf)      6633
 Total number of Cartesian basis functions (naos)       1416
 Total number of Cartesian core functions  (ncos)          0

1
 ***************************************************************************************************



                                              ***********************
                                              *  T E C H N I C A L  *
                                              ***********************
  



 =============================================================
 P A R A L L E L I Z A T I O N  and  V E C T O R I Z A T I O N
 =============================================================
  
 Nr of parallel processes:                               16
 Maximum vector length in NumInt loops:                 128



 =====================
 S C F   U P D A T E S
 =====================
  
 Max. nr. of cycles:                               300
 Convergence criterion:                              0.0000010000
   secondary criterion:                              0.0010000000

 Mix parameter (when DIIS does not apply):           0.2000000000
 Mixed ADIIS+SDIIS will be used                  
    Max number of expansion vectors:                10
    Pure ADIIS when Max([F,P]) is above              0.1000000000
    Pure SDIIS when Max([F,P]) is below              0.0010000000
 Automatic ElectronSmearing (in case of problematic SCF convergence) disabled



 =================
 P R E C I S I O N  ***  (General: NumInt, NeglectFunctionTails, ...)  ***
 =================
  

 NumInt:           Target precision:                 8.0000000000
 -------           Initial precision:                8.0000000000
                   Min. precision (optimization):    8.0000000000

 Neglect Functions:          Basis functions:        0.1000000000E-09
 ------------------          Fit functions:          0.1000000000E-09



 ===========================
 L I N E A R   S C A L I N G
 ===========================
  

 Cut-off radii density fit:                        0.1000000000E-11
 Overlap cut-off criterion AO matrix elements:     0.1000000000E-09
 Cut-offs for Coulomb potential and fitted density:0.1000000000E-11
 Cut-off criterion for Coulomb multipole terms:    0.1000000000E-11
 Progressive Convergence parameter:                 0.000000000    
1
 ***************************************************************************************************



                                            ***************************
                                            *  C O M P U T A T I O N  *
                                            ***************************
  

 Number of elements of the density matrix on this node (used, total):     62447   1003236



 ===========================================
 Numerical Integration : Fuzzy Cells (Becke)
 ===========================================
  
 Becke grid quality: VERYGOOD       
  
 Lebedev angular grid order:             min:  13 max:  47
 Nr. of radial points:                   min:  64 max: 183

 Total nr. of points:    2158644
 Nr. of blocks:            16865
 Block length:               128
 Nr. of dummy points:         76


 Test of Precision of the Numerical Integration Grid
 ===================================================

 Integral of the Total Core Density:                   0.00000000000000



 ========================
 Density Fitting (zlmFit)
 ========================
  
 ZlmFit Fit Quality: VERYGOOD       
  
 Max L-expansion:                        min:   9 max:  11
 Nr. of radial interpolation points:     min: 120 max: 400



 ======================
 RI Hartree-Fock Scheme
 ======================
  
 Fit Set Quality     : VERYGOOD
 Threshold Quality   : VERYGOOD
 Integration Quality : VERYGOOD
 Fit Generation Method : AUTO
 Response Quality    : DEFAULT
 Is Range Separated  :  F
 
 RIHartreeFock Dependency: number of modified vectors:          83



 =====
 S C F  ***  ScaSCF  ***
 =====
  
 Initial density matrix is calculated as sum of fragments

 CYCLE    1
 SCF Error: norm([F,P])=      4.369355472097, max([F,P])=      1.931354150470
 orbitals (Q,E):
 ---------------
[...]
     450       13.7401         0.000       
     449       13.6084         0.000       
     448       13.5719         0.000       
     447       13.5325         0.000       
     446       13.3972         0.000       
     445       13.3212         0.000       
     444       13.2184         0.000       
     443       13.1486         0.000       
     442       13.0755         0.000       
     441       12.9991         0.000       
     440       12.9786         0.000       
     439       12.8907         0.000       
     438       12.7874         0.000       
     437       12.7652         0.000       
     436       12.6668         0.000       
     435       12.6207         0.000       
     434       12.5990         0.000       
     433       12.4569         0.000       
     432       12.4389         0.000       
     431       12.3183         0.000       
     430       12.2224         0.000       
     429       12.1912         0.000       
     428       12.1468         0.000       
     427       12.0385         0.000       
     426       11.8949         0.000       
     425       11.8358         0.000       
     424       11.7611         0.000       
     423       11.7225         0.000       
     422       11.6485         0.000       
     421       11.5964         0.000       
     420       11.5674         0.000       
     419       11.4213         0.000       
     418       11.3722         0.000       
     417       11.3116         0.000       
     416       11.2933         0.000       
     415       11.2002         0.000       
     414       11.1746         0.000       
     413       11.1331         0.000       
     412       11.1113         0.000       
     411       11.0364         0.000       
     410       10.9847         0.000       
     409       10.9320         0.000       
     408       10.7637         0.000       
     407       10.7454         0.000       
     406       10.7163         0.000       
     405       10.6568         0.000       
     404       10.6300         0.000       
     403       10.5782         0.000       
     402       10.5279         0.000       
     401       10.4056         0.000       
     400       10.3540         0.000       
     399       10.2760         0.000       
     398       10.1935         0.000       
     397       10.1545         0.000       
     396       10.0115         0.000       
     395       10.0005         0.000       
     394        9.9812         0.000       
     393        9.9052         0.000       
     392        9.8673         0.000       
     391        9.8395         0.000       
     390        9.7777         0.000       
     389        9.6962         0.000       
     388        9.6754         0.000       
     387        9.6498         0.000       
     386        9.5619         0.000       
     385        9.4880         0.000       
     384        9.4030         0.000       
     383        9.3173         0.000       
     382        9.2882         0.000       
     381        9.2384         0.000       
     380        9.1987         0.000       
     379        9.1508         0.000       
     378        9.0218         0.000       
     377        8.9838         0.000       
     376        8.9622         0.000       
     375        8.9352         0.000       
     374        8.8909         0.000       
     373        8.8066         0.000       
     372        8.7367         0.000       
     371        8.6440         0.000       
     370        8.5573         0.000       
     369        8.4733         0.000       
     368        8.3886         0.000       
     367        8.3866         0.000       
     366        8.3078         0.000       
     365        8.1814         0.000       
     364        8.1287         0.000       
     363        8.1104         0.000       
     362        8.0083         0.000       
     361        7.9423         0.000       
     360        7.9228         0.000       
     359        7.8462         0.000       
     358        7.7124         0.000       
     357        7.6894         0.000       
     356        7.6150         0.000       
     355        7.5495         0.000       
     354        7.4585         0.000       
     353        7.3347         0.000       
     352        7.2861         0.000       
     351        7.2470         0.000       
     350        7.1316         0.000       
     349        7.0578         0.000       
     348        7.0018         0.000       
     347        6.9619         0.000       
     346        6.8592         0.000       
     345        6.8095         0.000       
     344        6.7365         0.000       
     343        6.6604         0.000       
     342        6.6224         0.000       
     341        6.5447         0.000       
     340        6.5212         0.000       
     339        6.4728         0.000       
     338        6.4153         0.000       
     337        6.3725         0.000       
     336        6.2853         0.000       
     335        6.2254         0.000       
     334        6.1833         0.000       
     333        6.1391         0.000       
     332        6.0802         0.000       
     331        6.0333         0.000       
     330        5.9911         0.000       
     329        5.9397         0.000       
     328        5.8728         0.000       
     327        5.7949         0.000       
     326        5.7398         0.000       
     325        5.6382         0.000       
     324        5.6033         0.000       
     323        5.5205         0.000       
     322        5.4960         0.000       
     321        5.4121         0.000       
     320        5.3726         0.000       
     319        5.3502         0.000       
     318        5.2856         0.000       
     317        5.1644         0.000       
     316        5.1145         0.000       
     315        5.0449         0.000       
     314        4.9616         0.000       
     313        4.8710         0.000       
     312        4.8266         0.000       
     311        4.6807         0.000       
     310        4.5983         0.000       
     309        4.4852         0.000       
     308        4.4439         0.000       
     307        4.3374         0.000       
     306        4.3200         0.000       
     305        4.1592         0.000       
     304        4.1216         0.000       
     303        3.9977         0.000       
     302        3.8636         0.000       
     301        3.8202         0.000       
     300        3.7761         0.000       
     299        3.6684         0.000       
     298        3.6339         0.000       
     297        3.5792         0.000       
     296        3.4697         0.000       
     295        3.4337         0.000       
     294        3.3499         0.000       
     293        3.2833         0.000       
     292        3.2132         0.000       
     291        3.1850         0.000       
     290        3.0973         0.000       
     289        3.0335         0.000       
     288        2.9888         0.000       
     287        2.9368         0.000       
     286        2.8353         0.000       
     285        2.8121         0.000       
     284        2.7399         0.000       
     283        2.7132         0.000       
     282        2.6244         0.000       
     281        2.5137         0.000       
     280        2.4815         0.000       
     279        2.3789         0.000       
     278        2.3194         0.000       
     277        2.3097         0.000       
     276        2.2203         0.000       
     275        2.1886         0.000       
     274        2.1121         0.000       
     273        1.9992         0.000       
     272        1.9042         0.000       
     271        1.8913         0.000       
     270        1.7750         0.000       
     269        1.6986         0.000       
     268        1.6042         0.000       
     267        1.4951         0.000       
     266        1.4572         0.000       
     265        1.3825         0.000       
     264        1.2664         0.000       
     263        1.2296         0.000       
     262        1.1079         0.000       
     261        1.0627         0.000       
     260        0.9890         0.000       
     259        0.7993         0.000       
     258        0.7348         0.000       
     257        0.7093         0.000       
     256        0.6604         0.000       
     255        0.4931         0.000       
     254        0.4478         0.000       
     253        0.3199         0.000       
     252        0.2297         0.000       
     251        0.1773         0.000       
     250       -0.0170         0.000       
     249       -0.1690         0.000       
     248       -0.3238         0.000       
     247       -0.4424         0.000       
     246       -0.4855         0.000       
     245       -0.5981         0.000       
     244       -0.6556         0.000       
     243       -0.8236         0.000       
     242       -0.8857         0.000       
     241       -1.0518         0.000       
     240       -1.1099         0.000       
     239       -1.2908         0.000       
     238       -1.4184         0.000       
     237       -1.4882         0.000 < LUMO
     236       -4.6106         2.000 < HOMO
     235       -6.3622         2.000       
     234       -6.7184         2.000       
     233       -6.8297         2.000       
     232       -7.0478         2.000       
     231       -7.3839         2.000       
     230       -7.4112         2.000       
     229       -7.4464         2.000       
     228       -7.5133         2.000       
     227       -7.5213         2.000       
     226       -7.5605         2.000       
     225       -7.6229         2.000       
     224       -7.6686         2.000       
     223       -7.7209         2.000       
     222       -7.7428         2.000       
     221       -7.9285         2.000       
     220       -8.0360         2.000       
     219       -8.0930         2.000       
     218       -8.1886         2.000       
     217       -8.5318         2.000       
     216       -8.6237         2.000       
     215       -8.8880         2.000       
     214       -8.9898         2.000       
     213       -9.2365         2.000       
     212       -9.3950         2.000       
     211       -9.4130         2.000       
     210       -9.5072         2.000       
     209       -9.5405         2.000       
     208       -9.6346         2.000       
     207       -9.7072         2.000       
     206       -9.7801         2.000       
     205       -9.9043         2.000       
     204       -9.9603         2.000       
     203      -10.0034         2.000       
     202      -10.0416         2.000       
     201      -10.1050         2.000       
     200      -10.1229         2.000       
     199      -10.2186         2.000       
     198      -10.3161         2.000       
     197      -10.5116         2.000       
     196      -10.5801         2.000       
     195      -10.6279         2.000       
     194      -10.7785         2.000       
     193      -10.8959         2.000       
     192      -10.9635         2.000       
     191      -10.9988         2.000       
     190      -11.0421         2.000       
     189      -11.1384         2.000       
     188      -11.3629         2.000       
     187      -11.5553         2.000       
     186      -11.6714         2.000       
     185      -11.8006         2.000       
     184      -11.8566         2.000       
     183      -11.9862         2.000       
     182      -12.0208         2.000       
     181      -12.0572         2.000       
     180      -12.1148         2.000       
     179      -12.1433         2.000       
     178      -12.1730         2.000       
     177      -12.1807         2.000       
     176      -12.2440         2.000       
     175      -12.2627         2.000       
     174      -12.4682         2.000       
     173      -12.5800         2.000       
     172      -12.6431         2.000       
     171      -12.7207         2.000       
     170      -12.7994         2.000       
     169      -12.8892         2.000       
     168      -12.9324         2.000       
     167      -12.9463         2.000       
     166      -13.0130         2.000       
     165      -13.0937         2.000       
     164      -13.1722         2.000       
     163      -13.1881         2.000       
     162      -13.2054         2.000       
     161      -13.2406         2.000       
     160      -13.2676         2.000       
     159      -13.4547         2.000       
     158      -13.5276         2.000       
     157      -13.5800         2.000       
     156      -13.6835         2.000       
     155      -13.8954         2.000       
     154      -14.0465         2.000       
     153      -14.1428         2.000       
     152      -14.3044         2.000       
     151      -14.4227         2.000       
     150      -14.4410         2.000       
     149      -14.7177         2.000       
     148      -14.8299         2.000       
     147      -14.9133         2.000       
     146      -14.9410         2.000       
     145      -14.9704         2.000       
     144      -15.2864         2.000       
     143      -15.4149         2.000       
     142      -15.9585         2.000       
     141      -16.0289         2.000       
     140      -16.1588         2.000       
     139      -16.2340         2.000       
     138      -16.3149         2.000       
     137      -16.9325         2.000       
     136      -17.0673         2.000       
     135      -17.1137         2.000       
     134      -17.1557         2.000       
     133      -17.2756         2.000       
     132      -17.3030         2.000       
     131      -17.3687         2.000       
     130      -17.4147         2.000       
     129      -17.4639         2.000       
     128      -17.5236         2.000       
     127      -17.6452         2.000       
     126      -18.5959         2.000       
     125      -18.7835         2.000       
     124      -18.8217         2.000       
     123      -18.9715         2.000       
     122      -19.7372         2.000       
     121      -20.4158         2.000       
     120      -20.9702         2.000       
     119      -21.2099         2.000       
     118      -21.2569         2.000       
     117      -21.2634         2.000       
     116      -21.2944         2.000       
     115      -21.3117         2.000       
     114      -21.3415         2.000       
     113      -21.3738         2.000       
     112      -21.4364         2.000       
     111      -21.5074         2.000       
     110      -21.7665         2.000       
     109      -22.1590         2.000       
     108      -22.3813         2.000       
     107      -22.5189         2.000       
     106      -24.1703         2.000       
     105      -24.3248         2.000       
     104      -24.3792         2.000       
     103      -24.4520         2.000       
     102      -24.5178         2.000       
     101      -24.5809         2.000       
     100      -24.7617         2.000       
      99      -24.8544         2.000       
      98      -26.9498         2.000       
      97      -28.3104         2.000       
      96      -30.1062         2.000       
      95      -31.3183         2.000       
      94      -34.8630         2.000       
      93      -35.0222         2.000       
      92      -35.2607         2.000       
      91      -35.4904         2.000       
      90      -57.3636         2.000       
      89      -57.8578         2.000       
      88      -58.1522         2.000       
      87      -93.1658         2.000       
      86     -129.5020         2.000       
      85     -129.5932         2.000       
      84     -129.5973         2.000       
      83     -129.7300         2.000       
      82     -129.8101         2.000       
      81     -129.8188         2.000       
      80     -166.0419         2.000       
      79     -166.0542         2.000       
      78     -166.0968         2.000       
      77     -181.3752         2.000       
      76     -181.5944         2.000       
      75     -197.4845         2.000       
      74     -197.4965         2.000       
      73     -197.7835         2.000       
      72     -223.6110         2.000       
      71     -261.1327         2.000       
      70     -278.5898         2.000       
      69     -278.5943         2.000       
      68     -278.6361         2.000       
      67     -278.7479         2.000       
      66     -278.8133         2.000       
      65     -278.8305         2.000       
      64     -278.8369         2.000       
      63     -278.8370         2.000       
      62     -278.8546         2.000       
      61     -278.8609         2.000       
      60     -278.8642         2.000       
      59     -278.8699         2.000       
      58     -278.8773         2.000       
      57     -278.8861         2.000       
      56     -278.8927         2.000       
      55     -278.9026         2.000       
      54     -278.9169         2.000       
      53     -278.9205         2.000       
      52     -278.9248         2.000       
      51     -278.9321         2.000       
      50     -278.9440         2.000       
      49     -278.9540         2.000       
      48     -278.9755         2.000       
      47     -278.9847         2.000       
      46     -279.1050         2.000       
      45     -279.1402         2.000       
      44     -279.1561         2.000       
      43     -279.1698         2.000       
      42     -279.1931         2.000       
      41     -279.1941         2.000       
      40     -279.2144         2.000       
      39     -279.2250         2.000       
      38     -279.4516         2.000       
      37     -279.4666         2.000       
      36     -279.4848         2.000       
      35     -279.7658         2.000       
      34     -279.9594         2.000       
      33     -279.9720         2.000       
      32     -280.3776         2.000       
      31     -280.8377         2.000       
      30     -281.3744         2.000       
      29     -281.4093         2.000       
      28     -281.4382         2.000       
      27     -281.4450         2.000       
      26     -337.4396         2.000       
      25     -337.4547         2.000       
      24     -337.5142         2.000       
      23     -337.5958         2.000       
      22     -337.6046         2.000       
      21     -393.4416         2.000       
      20     -523.0340         2.000       
      19     -523.0645         2.000       
      18     -523.9063         2.000       
      17     -531.2874         2.000       
      16     -531.4537         2.000       
      15     -531.5492         2.000       
      14     -653.2641         2.000       
      13     -675.4220         2.000       
      12     -675.5787         2.000       
      11     -675.5983         2.000       
      10     -675.6266         2.000       
       9    -2107.4435         2.000       
       8    -2107.6719         2.000       
       7    -2435.3845         2.000       
       6    -2777.3612         2.000       
       5    -3189.4063         2.000       
       4    -3189.4819         2.000       
       3    -3189.5148         2.000       
       2    -3560.4169         2.000       
       1   -24223.5887         2.000       

AMS application finished. Exiting.
NORMAL TERMINATION
     Total cpu time:    4858.47
  Total system time:      51.49
 Total elapsed time:    4932.10
NORMAL TERMINATION
