

 Parallel Execution: Process Information
 ==============================================================================
 Rank   Node Name                              NodeID   MyNodeRank  NodeMaster
    0   eu-g5-010-4                               0          0          0
    1   eu-g5-010-4                               1          0          1
    2   eu-g5-010-4                               0          1         -1
    3   eu-g5-010-4                               1          1         -1
    4   eu-g5-010-4                               0          2         -1
    5   eu-g5-010-4                               1          2         -1
    6   eu-g5-010-4                               0          3         -1
    7   eu-g5-010-4                               1          3         -1
    8   eu-g5-010-4                               0          4         -1
    9   eu-g5-010-4                               1          4         -1
   10   eu-g5-010-4                               0          5         -1
   11   eu-g5-010-4                               1          5         -1
   12   eu-g5-010-4                               0          6         -1
   13   eu-g5-010-4                               1          6         -1
   14   eu-g5-010-4                               0          7         -1
   15   eu-g5-010-4                               1          7         -1
 ==============================================================================


May use up to 30549MB of RAM as shared memory on node 0
May use up to 30759MB of RAM as shared memory on node 1

 *******************************************************************************
 *                                                                             *
 *  --------------------------------                                           *
 *   Amsterdam Modeling Suite (AMS)              2023.101                      *
 *  --------------------------------                                           *
 *                                               r111868 2023-03-31            *
 *                                                                             *
 *                                                                             *
 *                              =================                              *
 *                              |               |                              *
 *                              |     A M S     |                              *
 *                              |               |                              *
 *                              =================                              *
 *                                                                             *
 *                                                                             *
 *   Online information and documentation:  https://www.scm.com/support/       *
 *   E-mail:  support@scm.com   info@scm.com                                   *
 *                                                                             *
 *   Scientific publications using AMS results must be properly referenced     *
 *   See the User Manuals (or the web site) for recommended citations          *
 *   The terms and conditions of the End User License Agreement apply to       *
 *   the use of AMS, https://www.scm.com/license-terms/                        *
 *                                                                             *
 ***********************  x86_64_linux_intel / openmpi  ************************
 
 Licensed to: D-CHAB / ETH site license / Zurich / Switzerland 2023-06-23 15:55:12
 SCM User ID: u7035
  
 AMS 2023.101  RunTime: May25-2024 09:19:27  ShM Nodes: 2  Procs: 16

 AMS jobname: ts_dcype
 AMS jobid  : 1822371772

 Start   directory: /cluster/scratch/sroediger/michael/eda/
 Results directory: /cluster/scratch/sroediger/michael/eda/ts_dcype.results/
 Scratch directory: /scratch/amstmp_ts_dcype_kid0.1822371772/


 Communication costs MPI_COMM_WORLD:      8.761 usec per message,   0.0278 usec per 8-byte item
 Communication costs for intra-node:      4.127 usec per message,   0.0164 usec per 8-byte item

 RNG seed: -1139215070 -725259215 -592771590 994306453 -1623350361 398606015 1633557091 426922743



                     *************************************************************************
                     *  ADF 2023.101  RunTime: May25-2024 09:19:28  ShM Nodes: 2  Procs: 16  *
                     *************************************************************************
  

       ****************************
       * SINGLE POINT CALCULATION *
       ****************************
 
--------
Geometry
--------
Formula: C40H56ClF4NO3P2PdS
Atoms
  Index Symbol   x (angstrom)   y (angstrom)   z (angstrom)
      1      C    -1.12730800     0.66027100    -1.20911400       region=pdsubstrate adf.f=pdsubstrate
      2      C    -0.80875900     1.63345900    -2.20011700       region=pdsubstrate adf.f=pdsubstrate
      3      H     0.18639000     1.65148500    -2.64896300       region=pdsubstrate adf.f=pdsubstrate
      4      C    -1.72833600     2.62332800    -2.49453300       region=pdsubstrate adf.f=pdsubstrate
      5      H    -1.46773000     3.43257400    -3.18100100       region=pdsubstrate adf.f=pdsubstrate
      6      C    -3.01609900     2.64392300    -1.91563700       region=pdsubstrate adf.f=pdsubstrate
      7      C    -3.40945500     1.59078700    -1.09742700       region=pdsubstrate adf.f=pdsubstrate
      8      H    -4.42989000     1.50422200    -0.72674900       region=pdsubstrate adf.f=pdsubstrate
      9      C    -2.48981200     0.57726300    -0.78377200       region=pdsubstrate adf.f=pdsubstrate
     10      C    -2.76135800    -0.71454300    -0.21660800       region=pdsubstrate adf.f=pdsubstrate
     11      C    -3.84900500    -1.14655300     0.54220800       region=pdsubstrate adf.f=pdsubstrate
     12      C    -3.93513100    -2.46279300     0.97097900       region=pdsubstrate adf.f=pdsubstrate
     13      C    -2.92517100    -3.36757000     0.62982500       region=pdsubstrate adf.f=pdsubstrate
     14      C    -1.83443800    -2.96877200    -0.13823200       region=pdsubstrate adf.f=pdsubstrate
     15      C    -1.74639800    -1.64613500    -0.57475800       region=pdsubstrate adf.f=pdsubstrate
     16      N    -0.69837100    -1.04215200    -1.29638300       region=pdsubstrate adf.f=pdsubstrate
     17      S    -0.07486600    -1.62773700    -2.73932200       region=pdsubstrate adf.f=pdsubstrate
     18      O     1.05590100    -0.75974600    -3.05095100       region=pdsubstrate adf.f=pdsubstrate
     19      O     0.07565500    -3.06963200    -2.71951200       region=pdsubstrate adf.f=pdsubstrate
     20      C    -1.34068000    -1.19486400    -3.95005800       region=pdsubstrate adf.f=pdsubstrate
     21     Cl    -2.85377800    -2.05008100    -3.68968900       region=pdsubstrate adf.f=pdsubstrate
     22      H    -0.91108600    -1.46535000    -4.92457100       region=pdsubstrate adf.f=pdsubstrate
     23      H    -1.49735600    -0.10931400    -3.87296100       region=pdsubstrate adf.f=pdsubstrate
     24      F    -0.89114800    -3.86846100    -0.36737100       region=pdsubstrate adf.f=pdsubstrate
     25      F    -2.97876700    -4.60892300     1.09311900       region=pdsubstrate adf.f=pdsubstrate
     26      F    -4.94967100    -2.86682800     1.72023100       region=pdsubstrate adf.f=pdsubstrate
     27      F    -4.81278300    -0.29342800     0.89257000       region=pdsubstrate adf.f=pdsubstrate
     28      O    -3.80529200     3.69559100    -2.25730900       region=pdsubstrate adf.f=pdsubstrate
     29      C    -5.08522300     3.75463700    -1.70543500       region=pdsubstrate adf.f=pdsubstrate
     30      H    -5.05650300     3.76838700    -0.59947400       region=pdsubstrate adf.f=pdsubstrate
     31      H    -5.71600400     2.90429800    -2.02378900       region=pdsubstrate adf.f=pdsubstrate
     32      H    -5.54503800     4.68614500    -2.06070600       region=pdsubstrate adf.f=pdsubstrate
     33     Pd     0.52110000     0.15796300    -0.07423900       region=pdsubstrate adf.f=pdsubstrate
     34      P     0.84174200     1.93701900     1.32159900       region=ligand adf.f=ligand
     35      C     2.19916400     1.48514500     2.50769200       region=ligand adf.f=ligand
     36      C    -0.56694700     2.41614800     2.42484800       region=ligand adf.f=ligand
     37      C     1.36466000     3.49189400     0.47394900       region=ligand adf.f=ligand
     38      C     3.24537600     0.54035900     1.90913600       region=ligand adf.f=ligand
     39      H     2.67449900     2.39135000     2.91628800       region=ligand adf.f=ligand
     40      H     1.68810700     0.99745400     3.35245900       region=ligand adf.f=ligand
     41      C    -1.59931100     3.23968500     1.64942600       region=ligand adf.f=ligand
     42      C    -1.20391100     1.13963800     2.98763800       region=ligand adf.f=ligand
     43      H    -0.17056300     3.02224000     3.26192300       region=ligand adf.f=ligand
     44      C     1.70056300     4.67386800     1.38124600       region=ligand adf.f=ligand
     45      C     2.49862100     3.21800200    -0.51596500       region=ligand adf.f=ligand
     46      H     0.47045300     3.74546900    -0.12635600       region=ligand adf.f=ligand
     47      P     2.51933500    -0.77352000     0.80526100       region=ligand adf.f=ligand
     48      H     3.85462700     0.08219800     2.70495800       region=ligand adf.f=ligand
     49      H     3.94040600     1.10894700     1.27109800       region=ligand adf.f=ligand
     50      C    -2.85239900     3.51273500     2.47525700       region=ligand adf.f=ligand
     51      H    -1.88006500     2.69074200     0.73526500       region=ligand adf.f=ligand
     52      H    -1.16340800     4.19505300     1.31968100       region=ligand adf.f=ligand
     53      C    -2.44529000     1.43513900     3.82086300       region=ligand adf.f=ligand
     54      H    -1.47564300     0.48764000     2.13756700       region=ligand adf.f=ligand
     55      H    -0.47255000     0.57282300     3.58565500       region=ligand adf.f=ligand
     56      C     2.02915400     5.91836200     0.55909400       region=ligand adf.f=ligand
     57      H     2.57252100     4.41574600     2.00896100       region=ligand adf.f=ligand
     58      H     0.87004300     4.88552700     2.07341100       region=ligand adf.f=ligand
     59      C     2.81944600     4.46034900    -1.33883000       region=ligand adf.f=ligand
     60      H     3.40329000     2.91018800     0.03871700       region=ligand adf.f=ligand
     61      H     2.22936200     2.37119200    -1.16685100       region=ligand adf.f=ligand
     62      C     2.30261300    -2.25365300     1.89990000       region=ligand adf.f=ligand
     63      C     3.89430900    -1.21565700    -0.34769900       region=ligand adf.f=ligand
     64      C    -3.46786700     2.23005700     3.01941100       region=ligand adf.f=ligand
     65      H    -3.58311000     4.06014900     1.85727400       region=ligand adf.f=ligand
     66      H    -2.59637100     4.18035100     3.31851700       region=ligand adf.f=ligand
     67      H    -2.88441700     0.48961100     4.17798000       region=ligand adf.f=ligand
     68      H    -2.15706600     2.00646600     4.72228200       region=ligand adf.f=ligand
     69      C     3.14558800     5.65197200    -0.44503200       region=ligand adf.f=ligand
     70      H     2.30163900     6.75145400     1.22714800       region=ligand adf.f=ligand
     71      H     1.12089300     6.23839500     0.01753100       region=ligand adf.f=ligand
     72      H     3.65485100     4.25246500    -2.02672400       region=ligand adf.f=ligand
     73      H     1.94720000     4.70329600    -1.97199500       region=ligand adf.f=ligand
     74      C     1.12160300    -2.00397900     2.84526400       region=ligand adf.f=ligand
     75      C     2.06242100    -3.49746300     1.03972900       region=ligand adf.f=ligand
     76      H     3.22034100    -2.39538000     2.50115600       region=ligand adf.f=ligand
     77      C     4.09591500    -0.11186800    -1.38872900       region=ligand adf.f=ligand
     78      C     5.21167800    -1.61820600     0.31308000       region=ligand adf.f=ligand
     79      H     3.48668500    -2.08847300    -0.89004000       region=ligand adf.f=ligand
     80      H    -4.34897300     2.46015300     3.63995500       region=ligand adf.f=ligand
     81      H    -3.82821600     1.60953600     2.18166200       region=ligand adf.f=ligand
     82      H     3.33499600     6.55047300    -1.05408300       region=ligand adf.f=ligand
     83      H     4.08319800     5.44605800     0.10313800       region=ligand adf.f=ligand
     84      C     0.76687800    -3.23326900     3.67385800       region=ligand adf.f=ligand
     85      H     0.24687000    -1.70298900     2.23951100       region=ligand adf.f=ligand
     86      H     1.34188900    -1.15388400     3.51079700       region=ligand adf.f=ligand
     87      C     1.68471900    -4.71802100     1.87359500       region=ligand adf.f=ligand
     88      H     1.25587700    -3.28417100     0.31833300       region=ligand adf.f=ligand
     89      H     2.95850700    -3.72657400     0.44228200       region=ligand adf.f=ligand
     90      C     5.14023000    -0.51820500    -2.42276500       region=ligand adf.f=ligand
     91      H     4.42763200     0.81610300    -0.88845700       region=ligand adf.f=ligand
     92      H     3.13344500     0.10796700    -1.87672700       region=ligand adf.f=ligand
     93      C     6.25267000    -2.01596800    -0.73085000       region=ligand adf.f=ligand
     94      H     5.59824800    -0.76798500     0.90379900       region=ligand adf.f=ligand
     95      H     5.05278800    -2.44568500     1.02362200       region=ligand adf.f=ligand
     96      C     0.49758200    -4.44192900     2.78734600       region=ligand adf.f=ligand
     97      H    -0.10764300    -3.01244100     4.30723200       region=ligand adf.f=ligand
     98      H     1.60048100    -3.46359900     4.36226300       region=ligand adf.f=ligand
     99      H     1.46555200    -5.56395900     1.20317500       region=ligand adf.f=ligand
    100      H     2.55219100    -5.02096800     2.48833700       region=ligand adf.f=ligand
    101      C     6.45780800    -0.91581400    -1.76647400       region=ligand adf.f=ligand
    102      H     5.29778500     0.30334800    -3.14009700       region=ligand adf.f=ligand
    103      H     4.74791300    -1.36876400    -3.00790800       region=ligand adf.f=ligand
    104      H     7.20601900    -2.26686500    -0.23778500       region=ligand adf.f=ligand
    105      H     5.91441400    -2.93598500    -1.24061400       region=ligand adf.f=ligand
    106      H     0.27375900    -5.32772900     3.40312400       region=ligand adf.f=ligand
    107      H    -0.39949800    -4.26016400     2.17180500       region=ligand adf.f=ligand
    108      H     7.18631600    -1.23841900    -2.52780700       region=ligand adf.f=ligand
    109      H     6.89844300    -0.03086900    -1.27124500       region=ligand adf.f=ligand
 
Total System Charge             0.00000
Bonding info available!
 
 
----------------
ADF Engine Input
----------------
 
 Basis
 Type TZP
 Core None
 End
 Fragments
 ligand ./ts_dcype.ligand.results/adf.rkf
 pdsubstrate ./ts_dcype.pdsubstrate.results/adf.rkf
 End
 XC
 Hybrid PBE0
 DISPERSION Grimme3 BJDAMP
 End
 NumericalQuality VeryGood
 

 Title: *** (NO TITLE) ***

 *** adf ***



 ===========================
 A T T A C H E D   F I L E S
 ===========================
  



 ===============================
 M O D E L   P A R A M E T E R S
 ===============================
  
 DENSITY FUNCTIONAL POTENTIAL (scf)
    Hybrid:                            PBE0                                    == Not Default ==

 SPIN  (restricted / unrestr.)
    Molecule:                          Restricted                               
    Fragments:                         Restricted                               

 OTHER ASPECTS
    Relativistic Corrections:          scalar (ZORA,MAPA)                       

    Nuclear Charge Density Model:      Point Charge Nuclei                      
    Core Treatment:                    Frozen Orbital(s)                        

    Hyperfine or Zeeman Interaction:   ---                                      

 Settings for Grimme D3 dispersion correction

      damping                        BJ
      s6                          1.000
      s8                          1.218
      a1                          0.414
      a2                          4.859

 Other (technical) parameters

      alpha                      14.000
      version                         4
 


 Fragment File(s)
 ----------------
 pdsubstrate:
         file : ./ts_dcype.pdsubstrate.results/adf.rkf
         jobid: 163743542
         title: *** adf ***
 ligand:
         file : ./ts_dcype.ligand.results/adf.rkf
         jobid: 752352813
         title: *** adf ***



 ===============
 G E O M E T R Y  ***  3D  Molecule  ***
 ===============
  

 ATOMS
 =====                            X Y Z                    CHARGE
                                (Angstrom)             Nucl     +Core       At.Mass
                       --------------------------    ----------------       -------
    1  C              -1.1273    0.6603   -1.2091      6.00      6.00       12.0000
    2  C              -0.8088    1.6335   -2.2001      6.00      6.00       12.0000
    3  H               0.1864    1.6515   -2.6490      1.00      1.00        1.0078
    4  C              -1.7283    2.6233   -2.4945      6.00      6.00       12.0000
    5  H              -1.4677    3.4326   -3.1810      1.00      1.00        1.0078
    6  C              -3.0161    2.6439   -1.9156      6.00      6.00       12.0000
    7  C              -3.4095    1.5908   -1.0974      6.00      6.00       12.0000
    8  H              -4.4299    1.5042   -0.7267      1.00      1.00        1.0078
    9  C              -2.4898    0.5773   -0.7838      6.00      6.00       12.0000
   10  C              -2.7614   -0.7145   -0.2166      6.00      6.00       12.0000
   11  C              -3.8490   -1.1466    0.5422      6.00      6.00       12.0000
   12  C              -3.9351   -2.4628    0.9710      6.00      6.00       12.0000
   13  C              -2.9252   -3.3676    0.6298      6.00      6.00       12.0000
   14  C              -1.8344   -2.9688   -0.1382      6.00      6.00       12.0000
   15  C              -1.7464   -1.6461   -0.5748      6.00      6.00       12.0000
   16  N              -0.6984   -1.0422   -1.2964      7.00      7.00       14.0031
   17  S              -0.0749   -1.6277   -2.7393     16.00     16.00       31.9721
   18  O               1.0559   -0.7597   -3.0510      8.00      8.00       15.9949
   19  O               0.0757   -3.0696   -2.7195      8.00      8.00       15.9949
   20  C              -1.3407   -1.1949   -3.9501      6.00      6.00       12.0000
   21  Cl             -2.8538   -2.0501   -3.6897     17.00     17.00       34.9689
   22  H              -0.9111   -1.4653   -4.9246      1.00      1.00        1.0078
   23  H              -1.4974   -0.1093   -3.8730      1.00      1.00        1.0078
   24  F              -0.8911   -3.8685   -0.3674      9.00      9.00       18.9984
   25  F              -2.9788   -4.6089    1.0931      9.00      9.00       18.9984
   26  F              -4.9497   -2.8668    1.7202      9.00      9.00       18.9984
   27  F              -4.8128   -0.2934    0.8926      9.00      9.00       18.9984
   28  O              -3.8053    3.6956   -2.2573      8.00      8.00       15.9949
   29  C              -5.0852    3.7546   -1.7054      6.00      6.00       12.0000
   30  H              -5.0565    3.7684   -0.5995      1.00      1.00        1.0078
   31  H              -5.7160    2.9043   -2.0238      1.00      1.00        1.0078
   32  H              -5.5450    4.6861   -2.0607      1.00      1.00        1.0078
   33  Pd              0.5211    0.1580   -0.0742     46.00     46.00      105.9035
   34  P               0.8417    1.9370    1.3216     15.00     15.00       30.9738
   35  C               2.1992    1.4851    2.5077      6.00      6.00       12.0000
   36  C              -0.5669    2.4161    2.4248      6.00      6.00       12.0000
   37  C               1.3647    3.4919    0.4739      6.00      6.00       12.0000
   38  C               3.2454    0.5404    1.9091      6.00      6.00       12.0000
   39  H               2.6745    2.3914    2.9163      1.00      1.00        1.0078
   40  H               1.6881    0.9975    3.3525      1.00      1.00        1.0078
   41  C              -1.5993    3.2397    1.6494      6.00      6.00       12.0000
   42  C              -1.2039    1.1396    2.9876      6.00      6.00       12.0000
   43  H              -0.1706    3.0222    3.2619      1.00      1.00        1.0078
   44  C               1.7006    4.6739    1.3812      6.00      6.00       12.0000
   45  C               2.4986    3.2180   -0.5160      6.00      6.00       12.0000
   46  H               0.4705    3.7455   -0.1264      1.00      1.00        1.0078
   47  P               2.5193   -0.7735    0.8053     15.00     15.00       30.9738
   48  H               3.8546    0.0822    2.7050      1.00      1.00        1.0078
   49  H               3.9404    1.1089    1.2711      1.00      1.00        1.0078
   50  C              -2.8524    3.5127    2.4753      6.00      6.00       12.0000
   51  H              -1.8801    2.6907    0.7353      1.00      1.00        1.0078
   52  H              -1.1634    4.1951    1.3197      1.00      1.00        1.0078
   53  C              -2.4453    1.4351    3.8209      6.00      6.00       12.0000
   54  H              -1.4756    0.4876    2.1376      1.00      1.00        1.0078
   55  H              -0.4726    0.5728    3.5857      1.00      1.00        1.0078
   56  C               2.0292    5.9184    0.5591      6.00      6.00       12.0000
   57  H               2.5725    4.4157    2.0090      1.00      1.00        1.0078
   58  H               0.8700    4.8855    2.0734      1.00      1.00        1.0078
   59  C               2.8194    4.4603   -1.3388      6.00      6.00       12.0000
   60  H               3.4033    2.9102    0.0387      1.00      1.00        1.0078
   61  H               2.2294    2.3712   -1.1669      1.00      1.00        1.0078
   62  C               2.3026   -2.2537    1.8999      6.00      6.00       12.0000
   63  C               3.8943   -1.2157   -0.3477      6.00      6.00       12.0000
   64  C              -3.4679    2.2301    3.0194      6.00      6.00       12.0000
   65  H              -3.5831    4.0601    1.8573      1.00      1.00        1.0078
   66  H              -2.5964    4.1804    3.3185      1.00      1.00        1.0078
   67  H              -2.8844    0.4896    4.1780      1.00      1.00        1.0078
   68  H              -2.1571    2.0065    4.7223      1.00      1.00        1.0078
   69  C               3.1456    5.6520   -0.4450      6.00      6.00       12.0000
   70  H               2.3016    6.7515    1.2271      1.00      1.00        1.0078
   71  H               1.1209    6.2384    0.0175      1.00      1.00        1.0078
   72  H               3.6549    4.2525   -2.0267      1.00      1.00        1.0078
   73  H               1.9472    4.7033   -1.9720      1.00      1.00        1.0078
   74  C               1.1216   -2.0040    2.8453      6.00      6.00       12.0000
   75  C               2.0624   -3.4975    1.0397      6.00      6.00       12.0000
   76  H               3.2203   -2.3954    2.5012      1.00      1.00        1.0078
   77  C               4.0959   -0.1119   -1.3887      6.00      6.00       12.0000
   78  C               5.2117   -1.6182    0.3131      6.00      6.00       12.0000
   79  H               3.4867   -2.0885   -0.8900      1.00      1.00        1.0078
   80  H              -4.3490    2.4602    3.6400      1.00      1.00        1.0078
   81  H              -3.8282    1.6095    2.1817      1.00      1.00        1.0078
   82  H               3.3350    6.5505   -1.0541      1.00      1.00        1.0078
   83  H               4.0832    5.4461    0.1031      1.00      1.00        1.0078
   84  C               0.7669   -3.2333    3.6739      6.00      6.00       12.0000
   85  H               0.2469   -1.7030    2.2395      1.00      1.00        1.0078
   86  H               1.3419   -1.1539    3.5108      1.00      1.00        1.0078
   87  C               1.6847   -4.7180    1.8736      6.00      6.00       12.0000
   88  H               1.2559   -3.2842    0.3183      1.00      1.00        1.0078
   89  H               2.9585   -3.7266    0.4423      1.00      1.00        1.0078
   90  C               5.1402   -0.5182   -2.4228      6.00      6.00       12.0000
   91  H               4.4276    0.8161   -0.8885      1.00      1.00        1.0078
   92  H               3.1334    0.1080   -1.8767      1.00      1.00        1.0078
   93  C               6.2527   -2.0160   -0.7308      6.00      6.00       12.0000
   94  H               5.5982   -0.7680    0.9038      1.00      1.00        1.0078
   95  H               5.0528   -2.4457    1.0236      1.00      1.00        1.0078
   96  C               0.4976   -4.4419    2.7873      6.00      6.00       12.0000
   97  H              -0.1076   -3.0124    4.3072      1.00      1.00        1.0078
   98  H               1.6005   -3.4636    4.3623      1.00      1.00        1.0078
   99  H               1.4656   -5.5640    1.2032      1.00      1.00        1.0078
  100  H               2.5522   -5.0210    2.4883      1.00      1.00        1.0078
  101  C               6.4578   -0.9158   -1.7665      6.00      6.00       12.0000
  102  H               5.2978    0.3033   -3.1401      1.00      1.00        1.0078
  103  H               4.7479   -1.3688   -3.0079      1.00      1.00        1.0078
  104  H               7.2060   -2.2669   -0.2378      1.00      1.00        1.0078
  105  H               5.9144   -2.9360   -1.2406      1.00      1.00        1.0078
  106  H               0.2738   -5.3277    3.4031      1.00      1.00        1.0078
  107  H              -0.3995   -4.2602    2.1718      1.00      1.00        1.0078
  108  H               7.1863   -1.2384   -2.5278      1.00      1.00        1.0078
  109  H               6.8984   -0.0309   -1.2712      1.00      1.00        1.0078


 FRAGMENTS
 =========                                     Atoms in this Fragment     Cart. coord.s (Angstrom)
                                               -------------------------------------------------------
    1  pdsubstrate                                       1  C           -1.1273    0.6603   -1.2091
                                                         2  C           -0.8088    1.6335   -2.2001
                                                         4  C           -1.7283    2.6233   -2.4945
                                                         6  C           -3.0161    2.6439   -1.9156
                                                         7  C           -3.4095    1.5908   -1.0974
                                                         9  C           -2.4898    0.5773   -0.7838
                                                        10  C           -2.7614   -0.7145   -0.2166
                                                        11  C           -3.8490   -1.1466    0.5422
                                                        12  C           -3.9351   -2.4628    0.9710
                                                        13  C           -2.9252   -3.3676    0.6298
                                                        14  C           -1.8344   -2.9688   -0.1382
                                                        15  C           -1.7464   -1.6461   -0.5748
                                                        20  C           -1.3407   -1.1949   -3.9501
                                                        29  C           -5.0852    3.7546   -1.7054
                                                         3  H            0.1864    1.6515   -2.6490
                                                         5  H           -1.4677    3.4326   -3.1810
                                                         8  H           -4.4299    1.5042   -0.7267
                                                        22  H           -0.9111   -1.4653   -4.9246
                                                        23  H           -1.4974   -0.1093   -3.8730
                                                        30  H           -5.0565    3.7684   -0.5995
                                                        31  H           -5.7160    2.9043   -2.0238
                                                        32  H           -5.5450    4.6861   -2.0607
                                                        16  N           -0.6984   -1.0422   -1.2964
                                                        17  S           -0.0749   -1.6277   -2.7393
                                                        18  O            1.0559   -0.7597   -3.0510
                                                        19  O            0.0757   -3.0696   -2.7195
                                                        28  O           -3.8053    3.6956   -2.2573
                                                        21  Cl          -2.8538   -2.0501   -3.6897
                                                        24  F           -0.8911   -3.8685   -0.3674
                                                        25  F           -2.9788   -4.6089    1.0931
                                                        26  F           -4.9497   -2.8668    1.7202
                                                        27  F           -4.8128   -0.2934    0.8926
                                                        33  Pd           0.5211    0.1580   -0.0742
    2  ligand                                           77  C            4.0959   -0.1119   -1.3887
                                                        78  C            5.2117   -1.6182    0.3131
                                                        84  C            0.7669   -3.2333    3.6739
                                                        87  C            1.6847   -4.7180    1.8736
                                                        90  C            5.1402   -0.5182   -2.4228
                                                        93  C            6.2527   -2.0160   -0.7308
                                                        96  C            0.4976   -4.4419    2.7873
                                                       101  C            6.4578   -0.9158   -1.7665
                                                        35  C            2.1992    1.4851    2.5077
                                                        36  C           -0.5669    2.4161    2.4248
                                                        37  C            1.3647    3.4919    0.4739
                                                        38  C            3.2454    0.5404    1.9091
                                                        41  C           -1.5993    3.2397    1.6494
                                                        42  C           -1.2039    1.1396    2.9876
                                                        44  C            1.7006    4.6739    1.3812
                                                        45  C            2.4986    3.2180   -0.5160
                                                        50  C           -2.8524    3.5127    2.4753
                                                        53  C           -2.4453    1.4351    3.8209
                                                        56  C            2.0292    5.9184    0.5591
                                                        59  C            2.8194    4.4603   -1.3388
                                                        62  C            2.3026   -2.2537    1.8999
                                                        63  C            3.8943   -1.2157   -0.3477
                                                        64  C           -3.4679    2.2301    3.0194
                                                        69  C            3.1456    5.6520   -0.4450
                                                        74  C            1.1216   -2.0040    2.8453
                                                        75  C            2.0624   -3.4975    1.0397
                                                        79  H            3.4867   -2.0885   -0.8900
                                                        80  H           -4.3490    2.4602    3.6400
                                                        81  H           -3.8282    1.6095    2.1817
                                                        82  H            3.3350    6.5505   -1.0541
                                                        83  H            4.0832    5.4461    0.1031
                                                        85  H            0.2469   -1.7030    2.2395
                                                        86  H            1.3419   -1.1539    3.5108
                                                        88  H            1.2559   -3.2842    0.3183
                                                        89  H            2.9585   -3.7266    0.4423
                                                        91  H            4.4276    0.8161   -0.8885
                                                        92  H            3.1334    0.1080   -1.8767
                                                        94  H            5.5982   -0.7680    0.9038
                                                        95  H            5.0528   -2.4457    1.0236
                                                        97  H           -0.1076   -3.0124    4.3072
                                                        98  H            1.6005   -3.4636    4.3623
                                                        99  H            1.4656   -5.5640    1.2032
                                                       100  H            2.5522   -5.0210    2.4883
                                                       102  H            5.2978    0.3033   -3.1401
                                                       103  H            4.7479   -1.3688   -3.0079
                                                       104  H            7.2060   -2.2669   -0.2378
                                                       105  H            5.9144   -2.9360   -1.2406
                                                       106  H            0.2738   -5.3277    3.4031
                                                       107  H           -0.3995   -4.2602    2.1718
                                                       108  H            7.1863   -1.2384   -2.5278
                                                       109  H            6.8984   -0.0309   -1.2712
                                                        39  H            2.6745    2.3914    2.9163
                                                        40  H            1.6881    0.9975    3.3525
                                                        43  H           -0.1706    3.0222    3.2619
                                                        46  H            0.4705    3.7455   -0.1264
                                                        48  H            3.8546    0.0822    2.7050
                                                        49  H            3.9404    1.1089    1.2711
                                                        51  H           -1.8801    2.6907    0.7353
                                                        52  H           -1.1634    4.1951    1.3197
                                                        54  H           -1.4756    0.4876    2.1376
                                                        55  H           -0.4726    0.5728    3.5857
                                                        57  H            2.5725    4.4157    2.0090
                                                        58  H            0.8700    4.8855    2.0734
                                                        60  H            3.4033    2.9102    0.0387
                                                        61  H            2.2294    2.3712   -1.1669
                                                        65  H           -3.5831    4.0601    1.8573
                                                        66  H           -2.5964    4.1804    3.3185
                                                        67  H           -2.8844    0.4896    4.1780
                                                        68  H           -2.1571    2.0065    4.7223
                                                        70  H            2.3016    6.7515    1.2271
                                                        71  H            1.1209    6.2384    0.0175
                                                        72  H            3.6549    4.2525   -2.0267
                                                        73  H            1.9472    4.7033   -1.9720
                                                        76  H            3.2203   -2.3954    2.5012
                                                        34  P            0.8417    1.9370    1.3216
                                                        47  P            2.5193   -0.7735    0.8053



 =====================================
 S Y M M E T R Y ,   E L E C T R O N S
 =====================================
  
 Symmetry: NOSYM

 Irreducible Representations, including subspecies
 -------------------------------------------------
 A


 Configuration of Valence Electrons
 ==================================
 ( determined in the SCF procedure )

 Total:   472

 Net Charge: 0 (Nuclei minus Electrons)

 Aufbau principle for MO occupations will be applied through SCF cycle no.     150
 Thereafter, the program will assign electrons to MOs that are spatially
 similar to the occupied MOs in a "reference" cycle ("KeepOrbitals").
 The reference cycle is always the PREVIOUS cycle: it will evolve with
 the SCF procedure.
1
 ***************************************************************************************************



                                      ****************************************
                                      *  B U I L D : (Fragments, Functions)  *
                                      ****************************************
  

 The individual fragments are copies of the corresponding 'Master' fragments defined on the fragment files.
 However, they may have been rotated (and translated) with respect to the Master. The local coordinate axes
 of each fragment (which define for instance the spatial orientation in the current molecule of a fragment
 P:x orbital) are not necessarily those of the molecule.
 The local frame (if different from the molecular one) is printed to enable an interpretation of the expan-
 sion of an MO in Fragment Orbitals.



                                         *********************************
                                         *  Fragment Type : pdsubstrate  *
                                         *********************************
  

 Fragment no.    1   (in the list of all fragments)
 -----------------
 The local coordinate frame is identical to the molecular frame.

 Check Atomic Coordinates:

                  Master (on file)          After Computed Tranformation               As specified on Input
           ----------------------------     ----------------------------     ---------------------------------
     1)    -1.12731   0.66027  -1.20911     -1.12731   0.66027  -1.20911       1  -1.12731   0.66027  -1.20911
     2)    -0.80876   1.63346  -2.20012     -0.80876   1.63346  -2.20012       2  -0.80876   1.63346  -2.20012
     3)    -1.72834   2.62333  -2.49453     -1.72834   2.62333  -2.49453       4  -1.72834   2.62333  -2.49453
     4)    -3.01610   2.64392  -1.91564     -3.01610   2.64392  -1.91564       6  -3.01610   2.64392  -1.91564
     5)    -3.40945   1.59079  -1.09743     -3.40945   1.59079  -1.09743       7  -3.40945   1.59079  -1.09743
     6)    -2.48981   0.57726  -0.78377     -2.48981   0.57726  -0.78377       9  -2.48981   0.57726  -0.78377
     7)    -2.76136  -0.71454  -0.21661     -2.76136  -0.71454  -0.21661      10  -2.76136  -0.71454  -0.21661
     8)    -3.84901  -1.14655   0.54221     -3.84901  -1.14655   0.54221      11  -3.84901  -1.14655   0.54221
     9)    -3.93513  -2.46279   0.97098     -3.93513  -2.46279   0.97098      12  -3.93513  -2.46279   0.97098
    10)    -2.92517  -3.36757   0.62982     -2.92517  -3.36757   0.62982      13  -2.92517  -3.36757   0.62982
    11)    -1.83444  -2.96877  -0.13823     -1.83444  -2.96877  -0.13823      14  -1.83444  -2.96877  -0.13823
    12)    -1.74640  -1.64613  -0.57476     -1.74640  -1.64613  -0.57476      15  -1.74640  -1.64613  -0.57476
    13)    -1.34068  -1.19486  -3.95006     -1.34068  -1.19486  -3.95006      20  -1.34068  -1.19486  -3.95006
    14)    -5.08522   3.75464  -1.70543     -5.08522   3.75464  -1.70543      29  -5.08522   3.75464  -1.70543
    15)     0.18639   1.65149  -2.64896      0.18639   1.65149  -2.64896       3   0.18639   1.65149  -2.64896
    16)    -1.46773   3.43257  -3.18100     -1.46773   3.43257  -3.18100       5  -1.46773   3.43257  -3.18100
    17)    -4.42989   1.50422  -0.72675     -4.42989   1.50422  -0.72675       8  -4.42989   1.50422  -0.72675
    18)    -0.91109  -1.46535  -4.92457     -0.91109  -1.46535  -4.92457      22  -0.91109  -1.46535  -4.92457
    19)    -1.49736  -0.10931  -3.87296     -1.49736  -0.10931  -3.87296      23  -1.49736  -0.10931  -3.87296
    20)    -5.05650   3.76839  -0.59947     -5.05650   3.76839  -0.59947      30  -5.05650   3.76839  -0.59947
    21)    -5.71600   2.90430  -2.02379     -5.71600   2.90430  -2.02379      31  -5.71600   2.90430  -2.02379
    22)    -5.54504   4.68614  -2.06071     -5.54504   4.68614  -2.06071      32  -5.54504   4.68614  -2.06071
    23)    -0.69837  -1.04215  -1.29638     -0.69837  -1.04215  -1.29638      16  -0.69837  -1.04215  -1.29638
    24)    -0.07487  -1.62774  -2.73932     -0.07487  -1.62774  -2.73932      17  -0.07487  -1.62774  -2.73932
    25)     1.05590  -0.75975  -3.05095      1.05590  -0.75975  -3.05095      18   1.05590  -0.75975  -3.05095
    26)     0.07566  -3.06963  -2.71951      0.07566  -3.06963  -2.71951      19   0.07566  -3.06963  -2.71951
    27)    -3.80529   3.69559  -2.25731     -3.80529   3.69559  -2.25731      28  -3.80529   3.69559  -2.25731
    28)    -2.85378  -2.05008  -3.68969     -2.85378  -2.05008  -3.68969      21  -2.85378  -2.05008  -3.68969
    29)    -0.89115  -3.86846  -0.36737     -0.89115  -3.86846  -0.36737      24  -0.89115  -3.86846  -0.36737
    30)    -2.97877  -4.60892   1.09312     -2.97877  -4.60892   1.09312      25  -2.97877  -4.60892   1.09312
    31)    -4.94967  -2.86683   1.72023     -4.94967  -2.86683   1.72023      26  -4.94967  -2.86683   1.72023
    32)    -4.81278  -0.29343   0.89257     -4.81278  -0.29343   0.89257      27  -4.81278  -0.29343   0.89257
    33)     0.52110   0.15796  -0.07424      0.52110   0.15796  -0.07424      33   0.52110   0.15796  -0.07424



                                            ****************************
                                            *  Fragment Type : ligand  *
                                            ****************************
  

 Fragment no.    2   (in the list of all fragments)
 -----------------
 The local coordinate frame is identical to the molecular frame.

 Check Atomic Coordinates:

                  Master (on file)          After Computed Tranformation               As specified on Input
           ----------------------------     ----------------------------     ---------------------------------
     1)     4.09591  -0.11187  -1.38873      4.09591  -0.11187  -1.38873      77   4.09591  -0.11187  -1.38873
     2)     5.21168  -1.61821   0.31308      5.21168  -1.61821   0.31308      78   5.21168  -1.61821   0.31308
     3)     0.76688  -3.23327   3.67386      0.76688  -3.23327   3.67386      84   0.76688  -3.23327   3.67386
     4)     1.68472  -4.71802   1.87359      1.68472  -4.71802   1.87359      87   1.68472  -4.71802   1.87359
     5)     5.14023  -0.51821  -2.42277      5.14023  -0.51821  -2.42277      90   5.14023  -0.51821  -2.42277
     6)     6.25267  -2.01597  -0.73085      6.25267  -2.01597  -0.73085      93   6.25267  -2.01597  -0.73085
     7)     0.49758  -4.44193   2.78735      0.49758  -4.44193   2.78735      96   0.49758  -4.44193   2.78735
     8)     6.45781  -0.91581  -1.76647      6.45781  -0.91581  -1.76647     101   6.45781  -0.91581  -1.76647
     9)     2.19916   1.48514   2.50769      2.19916   1.48514   2.50769      35   2.19916   1.48514   2.50769
    10)    -0.56695   2.41615   2.42485     -0.56695   2.41615   2.42485      36  -0.56695   2.41615   2.42485
    11)     1.36466   3.49189   0.47395      1.36466   3.49189   0.47395      37   1.36466   3.49189   0.47395
    12)     3.24538   0.54036   1.90914      3.24538   0.54036   1.90914      38   3.24538   0.54036   1.90914
    13)    -1.59931   3.23969   1.64943     -1.59931   3.23969   1.64943      41  -1.59931   3.23969   1.64943
    14)    -1.20391   1.13964   2.98764     -1.20391   1.13964   2.98764      42  -1.20391   1.13964   2.98764
    15)     1.70056   4.67387   1.38125      1.70056   4.67387   1.38125      44   1.70056   4.67387   1.38125
    16)     2.49862   3.21800  -0.51597      2.49862   3.21800  -0.51597      45   2.49862   3.21800  -0.51597
    17)    -2.85240   3.51274   2.47526     -2.85240   3.51274   2.47526      50  -2.85240   3.51274   2.47526
    18)    -2.44529   1.43514   3.82086     -2.44529   1.43514   3.82086      53  -2.44529   1.43514   3.82086
    19)     2.02915   5.91836   0.55909      2.02915   5.91836   0.55909      56   2.02915   5.91836   0.55909
    20)     2.81945   4.46035  -1.33883      2.81945   4.46035  -1.33883      59   2.81945   4.46035  -1.33883
    21)     2.30261  -2.25365   1.89990      2.30261  -2.25365   1.89990      62   2.30261  -2.25365   1.89990
    22)     3.89431  -1.21566  -0.34770      3.89431  -1.21566  -0.34770      63   3.89431  -1.21566  -0.34770
    23)    -3.46787   2.23006   3.01941     -3.46787   2.23006   3.01941      64  -3.46787   2.23006   3.01941
    24)     3.14559   5.65197  -0.44503      3.14559   5.65197  -0.44503      69   3.14559   5.65197  -0.44503
    25)     1.12160  -2.00398   2.84526      1.12160  -2.00398   2.84526      74   1.12160  -2.00398   2.84526
    26)     2.06242  -3.49746   1.03973      2.06242  -3.49746   1.03973      75   2.06242  -3.49746   1.03973
    27)     3.48669  -2.08847  -0.89004      3.48669  -2.08847  -0.89004      79   3.48669  -2.08847  -0.89004
    28)    -4.34897   2.46015   3.63996     -4.34897   2.46015   3.63996      80  -4.34897   2.46015   3.63996
    29)    -3.82822   1.60954   2.18166     -3.82822   1.60954   2.18166      81  -3.82822   1.60954   2.18166
    30)     3.33500   6.55047  -1.05408      3.33500   6.55047  -1.05408      82   3.33500   6.55047  -1.05408
    31)     4.08320   5.44606   0.10314      4.08320   5.44606   0.10314      83   4.08320   5.44606   0.10314
    32)     0.24687  -1.70299   2.23951      0.24687  -1.70299   2.23951      85   0.24687  -1.70299   2.23951
    33)     1.34189  -1.15388   3.51080      1.34189  -1.15388   3.51080      86   1.34189  -1.15388   3.51080
    34)     1.25588  -3.28417   0.31833      1.25588  -3.28417   0.31833      88   1.25588  -3.28417   0.31833
    35)     2.95851  -3.72657   0.44228      2.95851  -3.72657   0.44228      89   2.95851  -3.72657   0.44228
    36)     4.42763   0.81610  -0.88846      4.42763   0.81610  -0.88846      91   4.42763   0.81610  -0.88846
    37)     3.13345   0.10797  -1.87673      3.13345   0.10797  -1.87673      92   3.13345   0.10797  -1.87673
    38)     5.59825  -0.76799   0.90380      5.59825  -0.76799   0.90380      94   5.59825  -0.76799   0.90380
    39)     5.05279  -2.44569   1.02362      5.05279  -2.44569   1.02362      95   5.05279  -2.44569   1.02362
    40)    -0.10764  -3.01244   4.30723     -0.10764  -3.01244   4.30723      97  -0.10764  -3.01244   4.30723
    41)     1.60048  -3.46360   4.36226      1.60048  -3.46360   4.36226      98   1.60048  -3.46360   4.36226
    42)     1.46555  -5.56396   1.20318      1.46555  -5.56396   1.20318      99   1.46555  -5.56396   1.20318
    43)     2.55219  -5.02097   2.48834      2.55219  -5.02097   2.48834     100   2.55219  -5.02097   2.48834
    44)     5.29779   0.30335  -3.14010      5.29779   0.30335  -3.14010     102   5.29779   0.30335  -3.14010
    45)     4.74791  -1.36876  -3.00791      4.74791  -1.36876  -3.00791     103   4.74791  -1.36876  -3.00791
    46)     7.20602  -2.26687  -0.23778      7.20602  -2.26687  -0.23778     104   7.20602  -2.26687  -0.23778
    47)     5.91441  -2.93599  -1.24061      5.91441  -2.93599  -1.24061     105   5.91441  -2.93599  -1.24061
    48)     0.27376  -5.32773   3.40312      0.27376  -5.32773   3.40312     106   0.27376  -5.32773   3.40312
    49)    -0.39950  -4.26016   2.17180     -0.39950  -4.26016   2.17180     107  -0.39950  -4.26016   2.17180
    50)     7.18632  -1.23842  -2.52781      7.18632  -1.23842  -2.52781     108   7.18632  -1.23842  -2.52781
    51)     6.89844  -0.03087  -1.27124      6.89844  -0.03087  -1.27124     109   6.89844  -0.03087  -1.27124
    52)     2.67450   2.39135   2.91629      2.67450   2.39135   2.91629      39   2.67450   2.39135   2.91629
    53)     1.68811   0.99745   3.35246      1.68811   0.99745   3.35246      40   1.68811   0.99745   3.35246
    54)    -0.17056   3.02224   3.26192     -0.17056   3.02224   3.26192      43  -0.17056   3.02224   3.26192
    55)     0.47045   3.74547  -0.12636      0.47045   3.74547  -0.12636      46   0.47045   3.74547  -0.12636
    56)     3.85463   0.08220   2.70496      3.85463   0.08220   2.70496      48   3.85463   0.08220   2.70496
    57)     3.94041   1.10895   1.27110      3.94041   1.10895   1.27110      49   3.94041   1.10895   1.27110
    58)    -1.88007   2.69074   0.73526     -1.88007   2.69074   0.73526      51  -1.88007   2.69074   0.73526
    59)    -1.16341   4.19505   1.31968     -1.16341   4.19505   1.31968      52  -1.16341   4.19505   1.31968
    60)    -1.47564   0.48764   2.13757     -1.47564   0.48764   2.13757      54  -1.47564   0.48764   2.13757
    61)    -0.47255   0.57282   3.58566     -0.47255   0.57282   3.58566      55  -0.47255   0.57282   3.58566
    62)     2.57252   4.41575   2.00896      2.57252   4.41575   2.00896      57   2.57252   4.41575   2.00896
    63)     0.87004   4.88553   2.07341      0.87004   4.88553   2.07341      58   0.87004   4.88553   2.07341
    64)     3.40329   2.91019   0.03872      3.40329   2.91019   0.03872      60   3.40329   2.91019   0.03872
    65)     2.22936   2.37119  -1.16685      2.22936   2.37119  -1.16685      61   2.22936   2.37119  -1.16685
    66)    -3.58311   4.06015   1.85727     -3.58311   4.06015   1.85727      65  -3.58311   4.06015   1.85727
    67)    -2.59637   4.18035   3.31852     -2.59637   4.18035   3.31852      66  -2.59637   4.18035   3.31852
    68)    -2.88442   0.48961   4.17798     -2.88442   0.48961   4.17798      67  -2.88442   0.48961   4.17798
    69)    -2.15707   2.00647   4.72228     -2.15707   2.00647   4.72228      68  -2.15707   2.00647   4.72228
    70)     2.30164   6.75145   1.22715      2.30164   6.75145   1.22715      70   2.30164   6.75145   1.22715
    71)     1.12089   6.23839   0.01753      1.12089   6.23839   0.01753      71   1.12089   6.23839   0.01753
    72)     3.65485   4.25246  -2.02672      3.65485   4.25246  -2.02672      72   3.65485   4.25246  -2.02672
    73)     1.94720   4.70330  -1.97199      1.94720   4.70330  -1.97199      73   1.94720   4.70330  -1.97199
    74)     3.22034  -2.39538   2.50116      3.22034  -2.39538   2.50116      76   3.22034  -2.39538   2.50116
    75)     0.84174   1.93702   1.32160      0.84174   1.93702   1.32160      34   0.84174   1.93702   1.32160
    76)     2.51933  -0.77352   0.80526      2.51933  -0.77352   0.80526      47   2.51933  -0.77352   0.80526

 Total nr. of (C)SFOs (summation over all irreps) :  1422

 Specify PRINT SFO in the input file to get a full list

 Nr. of SFOs for ir.rep.           A :  1422



 ================================
 (Slater-type)  F U N C T I O N S  ***  (Basis and Fit)  ***
 ================================
  

 Atom Type    1  (C)
 ==============

 Valence Basis Sets:   9
 -----------------------
   1 S    7.680000
   1 S    5.000000
   2 S    1.280000
   2 S    2.100000
   2 S    4.600000
   2 P    0.820000
   2 P    1.480000
   2 P    2.940000
   3 D    2.200000

 Charge Fitting Sets (for the computation of the Coulomb Potential):  22
 -----------------------------------------------------------------------
   1 S   15.360000
   2 S   17.530000
   2 S   12.070000
   2 S    8.310000
   2 S    5.730000
   3 S    5.780000
   3 S    4.220000
   3 S    3.080000
   3 S    2.250000
   3 S    1.640000
   2 P    9.880000
   2 P    5.800000
   3 P    5.050000
   3 P    3.230000
   3 P    2.060000
   3 D    7.200000
   3 D    4.400000
   3 D    2.690000
   3 D    1.640000
   4 F    5.400000
   4 F    3.550000
   5 G    4.500000

 Atom Type    2  (H)
 ==============

 Valence Basis Sets:   4
 -----------------------
   1 S    0.690000
   1 S    0.920000
   1 S    1.580000
   2 P    1.250000

 Charge Fitting Sets (for the computation of the Coulomb Potential):  11
 -----------------------------------------------------------------------
   1 S    3.160000
   1 S    2.090000
   1 S    1.380000
   2 S    1.500000
   2 P    4.000000
   2 P    2.650000
   2 P    1.750000
   3 D    4.000000
   3 D    2.500000
   4 F    3.000000
   5 G    4.000000

 Atom Type    3  (N)
 ==============

 Valence Basis Sets:   9
 -----------------------
   1 S    8.740000
   1 S    5.900000
   2 S    5.150000
   2 S    2.500000
   2 S    1.500000
   2 P    3.680000
   2 P    1.880000
   2 P    1.000000
   3 D    2.200000

 Charge Fitting Sets (for the computation of the Coulomb Potential):  22
 -----------------------------------------------------------------------
   1 S   17.480000
   2 S   20.150000
   2 S   13.990000
   2 S    9.710000
   2 S    6.740000
   3 S    6.860000
   3 S    5.040000
   3 S    3.700000
   3 S    2.720000
   3 S    2.000000
   2 P   11.320000
   2 P    6.730000
   3 P    5.920000
   3 P    3.820000
   3 P    2.460000
   3 D    8.100000
   3 D    5.080000
   3 D    3.190000
   3 D    2.000000
   4 F    5.800000
   4 F    3.600000
   5 G    4.500000

 Atom Type    4  (S)
 ==============

 Valence Basis Sets:  13
 -----------------------
   1 S   19.400000
   1 S   14.350000
   2 S    5.900000
   2 S    4.250000
   2 P    8.050000
   2 P    4.550000
   3 S    3.450000
   3 S    2.250000
   3 S    1.500000
   3 P    2.650000
   3 P    1.600000
   3 P    1.000000
   3 D    2.100000

 Charge Fitting Sets (for the computation of the Coulomb Potential):  30
 -----------------------------------------------------------------------
   1 S   38.800000
   1 S   23.350000
   2 S   26.020000
   2 S   17.570000
   3 S   17.420000
   3 S   12.500000
   3 S    8.980000
   4 S    8.520000
   4 S    6.360000
   4 S    4.750000
   5 S    4.420000
   5 S    3.390000
   5 S    2.600000
   5 S    2.000000
   2 P   27.450000
   3 P   20.250000
   4 P   14.920000
   4 P    8.780000
   5 P    6.520000
   5 P    4.040000
   5 P    2.500000
   3 D   20.900000
   4 D   14.560000
   4 D    8.130000
   5 D    5.740000
   5 D    3.390000
   5 D    2.000000
   4 F    5.000000
   4 F    3.000000
   5 G    3.620000

 Atom Type    5  (O)
 ==============

 Valence Basis Sets:   9
 -----------------------
   1 S    9.800000
   1 S    6.800000
   2 S    7.580000
   2 S    2.880000
   2 S    1.720000
   2 P    4.080000
   2 P    2.080000
   2 P    1.120000
   3 D    2.000000

 Charge Fitting Sets (for the computation of the Coulomb Potential):  22
 -----------------------------------------------------------------------
   1 S   19.600000
   2 S   22.600000
   2 S   15.680000
   2 S   10.890000
   2 S    7.560000
   3 S    7.690000
   3 S    5.650000
   3 S    4.150000
   3 S    3.050000
   3 S    2.240000
   2 P   12.860000
   2 P    7.680000
   3 P    6.780000
   3 P    4.390000
   3 P    2.840000
   3 D    8.800000
   3 D    5.580000
   3 D    3.530000
   3 D    2.240000
   4 F    6.200000
   4 F    3.700000
   5 G    4.500000

 Atom Type    6  (Cl)
 ==============

 Valence Basis Sets:  13
 -----------------------
   1 S   20.300000
   1 S   15.250000
   2 S    6.250000
   2 S    4.450000
   2 P    8.850000
   2 P    5.050000
   3 S    3.450000
   3 S    2.300000
   3 S    1.600000
   3 P    3.350000
   3 P    2.050000
   3 P    1.200000
   3 D    2.000000

 Charge Fitting Sets (for the computation of the Coulomb Potential):  30
 -----------------------------------------------------------------------
   1 S   40.600000
   1 S   24.830000
   2 S   28.080000
   2 S   19.200000
   3 S   19.250000
   3 S   13.970000
   3 S   10.130000
   4 S    9.710000
   4 S    7.320000
   4 S    5.510000
   5 S    5.170000
   5 S    4.000000
   5 S    3.100000
   5 S    2.400000
   2 P   29.150000
   3 P   21.740000
   4 P   16.160000
   4 P    9.600000
   5 P    7.180000
   5 P    4.480000
   5 P    2.800000
   3 D   21.950000
   4 D   15.750000
   4 D    9.040000
   5 D    6.550000
   5 D    3.960000
   5 D    2.400000
   4 F    5.000000
   4 F    3.000000
   5 G    3.500000

 Atom Type    7  (F)
 ==============

 Valence Basis Sets:   9
 -----------------------
   1 S   10.880000
   1 S    7.700000
   2 S    3.240000
   2 S    1.940000
   2 S    0.740000
   2 P    4.540000
   2 P    2.300000
   2 P    1.240000
   3 D    2.000000

 Charge Fitting Sets (for the computation of the Coulomb Potential):  23
 -----------------------------------------------------------------------
   1 S   21.760000
   2 S   24.390000
   2 S   16.560000
   2 S   11.240000
   2 S    7.630000
   3 S    7.600000
   3 S    5.480000
   3 S    3.950000
   3 S    2.850000
   3 S    2.050000
   3 S    1.480000
   2 P   14.400000
   2 P    7.530000
   3 P    5.900000
   3 P    3.420000
   3 P    1.980000
   3 D    9.700000
   3 D    6.160000
   3 D    3.910000
   3 D    2.480000
   4 F    6.500000
   4 F    3.750000
   5 G    4.500000

 Atom Type    8  (Pd)
 ==============

 Valence Basis Sets:  26
 -----------------------
   1 S  306.000000
   1 S   76.400000
   1 S   45.900000
   2 S   53.800000
   2 S   19.550000
   3 S   10.150000
   3 S    6.650000
   4 S    6.150000
   4 S    3.900000
   5 S    2.500000
   5 S    1.450000
   5 S    0.850000
   2 P   29.100000
   2 P   18.750000
   3 P   11.250000
   3 P    8.100000
   4 P    5.950000
   4 P    3.950000
   4 P    2.700000
   3 D   17.550000
   3 D   10.450000
   3 D    6.900000
   4 D    4.250000
   4 D    2.200000
   4 D    1.100000
   5 P    1.450000

 Charge Fitting Sets (for the computation of the Coulomb Potential):  58
 -----------------------------------------------------------------------
   1 S  612.000000
   1 S  446.101000
   1 S  325.174000
   1 S  237.027000
   1 S  172.774000
   1 S  125.939000
   1 S   91.800000
   1 S   53.670000
   2 S   58.190000
   2 S   38.430000
   3 S   37.300000
   3 S   26.280000
   4 S   24.500000
   4 S   18.000000
   5 S   16.470000
   5 S   12.460000
   6 S   11.300000
   6 S    8.740000
   7 S    7.890000
   7 S    6.210000
   8 S    5.590000
   8 S    4.470000
   8 S    3.570000
   9 S    3.210000
   9 S    2.600000
   9 S    2.100000
   9 S    1.700000
   2 P   64.650000
   3 P   49.410000
   4 P   37.530000
   5 P   28.620000
   6 P   21.980000
   6 P   14.500000
   7 P   11.220000
   7 P    7.620000
   8 P    5.940000
   8 P    4.130000
   9 P    3.240000
   9 P    2.300000
   3 D   56.350000
   4 D   37.260000
   5 D   25.120000
   6 D   17.230000
   6 D   10.190000
   7 D    7.110000
   7 D    4.360000
   8 D    3.090000
   8 D    1.950000
   4 F   47.900000
   5 F   28.270000
   6 F   17.190000
   6 F    9.040000
   7 F    5.640000
   7 F    3.100000
   5 G   20.900000
   6 G    9.980000
   7 G    4.980000
   7 G    2.200000

 Atom Type    9  (C)
 ==============

 Valence Basis Sets:   9
 -----------------------
   1 S    7.680000
   1 S    5.000000
   2 S    1.280000
   2 S    2.100000
   2 S    4.600000
   2 P    0.820000
   2 P    1.480000
   2 P    2.940000
   3 D    2.200000

 Charge Fitting Sets (for the computation of the Coulomb Potential):  22
 -----------------------------------------------------------------------
   1 S   15.360000
   2 S   17.530000
   2 S   12.070000
   2 S    8.310000
   2 S    5.730000
   3 S    5.780000
   3 S    4.220000
   3 S    3.080000
   3 S    2.250000
   3 S    1.640000
   2 P    9.880000
   2 P    5.800000
   3 P    5.050000
   3 P    3.230000
   3 P    2.060000
   3 D    7.200000
   3 D    4.400000
   3 D    2.690000
   3 D    1.640000
   4 F    5.400000
   4 F    3.550000
   5 G    4.500000

 Atom Type   10  (H)
 ==============

 Valence Basis Sets:   4
 -----------------------
   1 S    0.690000
   1 S    0.920000
   1 S    1.580000
   2 P    1.250000

 Charge Fitting Sets (for the computation of the Coulomb Potential):  11
 -----------------------------------------------------------------------
   1 S    3.160000
   1 S    2.090000
   1 S    1.380000
   2 S    1.500000
   2 P    4.000000
   2 P    2.650000
   2 P    1.750000
   3 D    4.000000
   3 D    2.500000
   4 F    3.000000
   5 G    4.000000

 Atom Type   11  (P)
 ==============

 Valence Basis Sets:  13
 -----------------------
   1 S   18.000000
   1 S   13.350000
   2 S    5.600000
   2 S    4.050000
   2 P    7.450000
   2 P    4.100000
   3 S    2.700000
   3 S    1.850000
   3 S    1.300000
   3 P    2.300000
   3 P    1.350000
   3 P    0.850000
   3 D    1.900000

 Charge Fitting Sets (for the computation of the Coulomb Potential):  30
 -----------------------------------------------------------------------
   1 S   36.000000
   1 S   21.450000
   2 S   23.670000
   2 S   15.860000
   3 S   15.600000
   3 S   11.130000
   3 S    7.940000
   4 S    7.490000
   4 S    5.560000
   4 S    4.130000
   5 S    3.810000
   5 S    2.910000
   5 S    2.230000
   5 S    1.700000
   2 P   25.450000
   3 P   18.490000
   4 P   13.440000
   4 P    7.810000
   5 P    5.730000
   5 P    3.510000
   5 P    2.150000
   3 D   19.350000
   4 D   13.230000
   4 D    7.250000
   5 D    5.040000
   5 D    2.930000
   5 D    1.700000
   4 F    5.000000
   4 F    3.000000
   5 G    3.750000


 BAS: List of all Elementary Cartesian Basis Functions
 =====================================================

 The numbering in the list below (to the right of the function characteristics) is referred
 to in print-outs of MO eigenvectors and Mulliken populations in the BAS representation
 (as contrasted to the SFO representation).

 Notes:
 1. The functions are characterized by a polynomial prefactor (powers of x,y,z and r) and
    an exponential decay factor alpha.
 2. Since the basis sets are specific for an atom TYPE, the individual functions occur on
    all atoms of that type.
 3. The word 'Core' in the left margin signals that it is a Core Function (CF) : not a
    degree of freedom in the valence set, but only used to ensure orthogonalization of
    the other valence basis functions on the frozen Core Orbitals.


 (power of) X  Y  Z  R     Alpha  on Atom
            ==========     =====     ==========

 C                                    1    2    3    4    5    6    7    8    9   10   11   12   13   14
                                  ---------------------------------------------------------------------------
            0  0  0  0     7.680      1   21   41   61   81  101  121  141  161  181  201  221  241  261
            0  0  0  0     5.000      2   22   42   62   82  102  122  142  162  182  202  222  242  262
            0  0  0  1     1.280      3   23   43   63   83  103  123  143  163  183  203  223  243  263
            0  0  0  1     2.100      4   24   44   64   84  104  124  144  164  184  204  224  244  264
            0  0  0  1     4.600      5   25   45   65   85  105  125  145  165  185  205  225  245  265
            1  0  0  0     0.820      6   26   46   66   86  106  126  146  166  186  206  226  246  266
            0  1  0  0     0.820      7   27   47   67   87  107  127  147  167  187  207  227  247  267
            0  0  1  0     0.820      8   28   48   68   88  108  128  148  168  188  208  228  248  268
            1  0  0  0     1.480      9   29   49   69   89  109  129  149  169  189  209  229  249  269
            0  1  0  0     1.480     10   30   50   70   90  110  130  150  170  190  210  230  250  270
            0  0  1  0     1.480     11   31   51   71   91  111  131  151  171  191  211  231  251  271
            1  0  0  0     2.940     12   32   52   72   92  112  132  152  172  192  212  232  252  272
            0  1  0  0     2.940     13   33   53   73   93  113  133  153  173  193  213  233  253  273
            0  0  1  0     2.940     14   34   54   74   94  114  134  154  174  194  214  234  254  274
            2  0  0  0     2.200     15   35   55   75   95  115  135  155  175  195  215  235  255  275
            1  1  0  0     2.200     16   36   56   76   96  116  136  156  176  196  216  236  256  276
            1  0  1  0     2.200     17   37   57   77   97  117  137  157  177  197  217  237  257  277
            0  2  0  0     2.200     18   38   58   78   98  118  138  158  178  198  218  238  258  278
            0  1  1  0     2.200     19   39   59   79   99  119  139  159  179  199  219  239  259  279
            0  0  2  0     2.200     20   40   60   80  100  120  140  160  180  200  220  240  260  280

 H                                   15   16   17   18   19   20   21   22
                                  ---------------------------------------------------------------------------
            0  0  0  0     0.690    281  287  293  299  305  311  317  323
            0  0  0  0     0.920    282  288  294  300  306  312  318  324
            0  0  0  0     1.580    283  289  295  301  307  313  319  325
            1  0  0  0     1.250    284  290  296  302  308  314  320  326
            0  1  0  0     1.250    285  291  297  303  309  315  321  327
            0  0  1  0     1.250    286  292  298  304  310  316  322  328

 N                                   23
                                  ---------------------------------------------------------------------------
            0  0  0  0     8.740    329
            0  0  0  0     5.900    330
            0  0  0  1     5.150    331
            0  0  0  1     2.500    332
            0  0  0  1     1.500    333
            1  0  0  0     3.680    334
            0  1  0  0     3.680    335
            0  0  1  0     3.680    336
            1  0  0  0     1.880    337
            0  1  0  0     1.880    338
            0  0  1  0     1.880    339
            1  0  0  0     1.000    340
            0  1  0  0     1.000    341
            0  0  1  0     1.000    342
            2  0  0  0     2.200    343
            1  1  0  0     2.200    344
            1  0  1  0     2.200    345
            0  2  0  0     2.200    346
            0  1  1  0     2.200    347
            0  0  2  0     2.200    348

 S                                   24
                                  ---------------------------------------------------------------------------
            0  0  0  0    19.400    349
            0  0  0  0    14.350    350
            0  0  0  1     5.900    351
            0  0  0  1     4.250    352
            1  0  0  0     8.050    353
            0  1  0  0     8.050    354
            0  0  1  0     8.050    355
            1  0  0  0     4.550    356
            0  1  0  0     4.550    357
            0  0  1  0     4.550    358
            0  0  0  2     3.450    359
            0  0  0  2     2.250    360
            0  0  0  2     1.500    361
            1  0  0  1     2.650    362
            0  1  0  1     2.650    363
            0  0  1  1     2.650    364
            1  0  0  1     1.600    365
            0  1  0  1     1.600    366
            0  0  1  1     1.600    367
            1  0  0  1     1.000    368
            0  1  0  1     1.000    369
            0  0  1  1     1.000    370
            2  0  0  0     2.100    371
            1  1  0  0     2.100    372
            1  0  1  0     2.100    373
            0  2  0  0     2.100    374
            0  1  1  0     2.100    375
            0  0  2  0     2.100    376

 O                                   25   26   27
                                  ---------------------------------------------------------------------------
            0  0  0  0     9.800    377  397  417
            0  0  0  0     6.800    378  398  418
            0  0  0  1     7.580    379  399  419
            0  0  0  1     2.880    380  400  420
            0  0  0  1     1.720    381  401  421
            1  0  0  0     4.080    382  402  422
            0  1  0  0     4.080    383  403  423
            0  0  1  0     4.080    384  404  424
            1  0  0  0     2.080    385  405  425
            0  1  0  0     2.080    386  406  426
            0  0  1  0     2.080    387  407  427
            1  0  0  0     1.120    388  408  428
            0  1  0  0     1.120    389  409  429
            0  0  1  0     1.120    390  410  430
            2  0  0  0     2.000    391  411  431
            1  1  0  0     2.000    392  412  432
            1  0  1  0     2.000    393  413  433
            0  2  0  0     2.000    394  414  434
            0  1  1  0     2.000    395  415  435
            0  0  2  0     2.000    396  416  436

 Cl                                  28
                                  ---------------------------------------------------------------------------
            0  0  0  0    20.300    437
            0  0  0  0    15.250    438
            0  0  0  1     6.250    439
            0  0  0  1     4.450    440
            1  0  0  0     8.850    441
            0  1  0  0     8.850    442
            0  0  1  0     8.850    443
            1  0  0  0     5.050    444
            0  1  0  0     5.050    445
            0  0  1  0     5.050    446
            0  0  0  2     3.450    447
            0  0  0  2     2.300    448
            0  0  0  2     1.600    449
            1  0  0  1     3.350    450
            0  1  0  1     3.350    451
            0  0  1  1     3.350    452
            1  0  0  1     2.050    453
            0  1  0  1     2.050    454
            0  0  1  1     2.050    455
            1  0  0  1     1.200    456
            0  1  0  1     1.200    457
            0  0  1  1     1.200    458
            2  0  0  0     2.000    459
            1  1  0  0     2.000    460
            1  0  1  0     2.000    461
            0  2  0  0     2.000    462
            0  1  1  0     2.000    463
            0  0  2  0     2.000    464

 F                                   29   30   31   32
                                  ---------------------------------------------------------------------------
            0  0  0  0    10.880    465  485  505  525
            0  0  0  0     7.700    466  486  506  526
            0  0  0  1     3.240    467  487  507  527
            0  0  0  1     1.940    468  488  508  528
            0  0  0  1     0.740    469  489  509  529
            1  0  0  0     4.540    470  490  510  530
            0  1  0  0     4.540    471  491  511  531
            0  0  1  0     4.540    472  492  512  532
            1  0  0  0     2.300    473  493  513  533
            0  1  0  0     2.300    474  494  514  534
            0  0  1  0     2.300    475  495  515  535
            1  0  0  0     1.240    476  496  516  536
            0  1  0  0     1.240    477  497  517  537
            0  0  1  0     1.240    478  498  518  538
            2  0  0  0     2.000    479  499  519  539
            1  1  0  0     2.000    480  500  520  540
            1  0  1  0     2.000    481  501  521  541
            0  2  0  0     2.000    482  502  522  542
            0  1  1  0     2.000    483  503  523  543
            0  0  2  0     2.000    484  504  524  544

 Pd                                  33
                                  ---------------------------------------------------------------------------
            0  0  0  0   306.000    545
            0  0  0  0    76.400    546
            0  0  0  0    45.900    547
            0  0  0  1    53.800    548
            0  0  0  1    19.550    549
            0  0  0  2    10.150    550
            0  0  0  2     6.650    551
            0  0  0  3     6.150    552
            0  0  0  3     3.900    553
            0  0  0  4     2.500    554
            0  0  0  4     1.450    555
            0  0  0  4     0.850    556
            1  0  0  0    29.100    557
            0  1  0  0    29.100    558
            0  0  1  0    29.100    559
            1  0  0  0    18.750    560
            0  1  0  0    18.750    561
            0  0  1  0    18.750    562
            1  0  0  1    11.250    563
            0  1  0  1    11.250    564
            0  0  1  1    11.250    565
            1  0  0  1     8.100    566
            0  1  0  1     8.100    567
            0  0  1  1     8.100    568
            1  0  0  2     5.950    569
            0  1  0  2     5.950    570
            0  0  1  2     5.950    571
            1  0  0  2     3.950    572
            0  1  0  2     3.950    573
            0  0  1  2     3.950    574
            1  0  0  2     2.700    575
            0  1  0  2     2.700    576
            0  0  1  2     2.700    577
            2  0  0  0    17.550    578
            1  1  0  0    17.550    579
            1  0  1  0    17.550    580
            0  2  0  0    17.550    581
            0  1  1  0    17.550    582
            0  0  2  0    17.550    583
            2  0  0  0    10.450    584
            1  1  0  0    10.450    585
            1  0  1  0    10.450    586
            0  2  0  0    10.450    587
            0  1  1  0    10.450    588
            0  0  2  0    10.450    589
            2  0  0  0     6.900    590
            1  1  0  0     6.900    591
            1  0  1  0     6.900    592
            0  2  0  0     6.900    593
            0  1  1  0     6.900    594
            0  0  2  0     6.900    595
            2  0  0  1     4.250    596
            1  1  0  1     4.250    597
            1  0  1  1     4.250    598
            0  2  0  1     4.250    599
            0  1  1  1     4.250    600
            0  0  2  1     4.250    601
            2  0  0  1     2.200    602
            1  1  0  1     2.200    603
            1  0  1  1     2.200    604
            0  2  0  1     2.200    605
            0  1  1  1     2.200    606
            0  0  2  1     2.200    607
            2  0  0  1     1.100    608
            1  1  0  1     1.100    609
            1  0  1  1     1.100    610
            0  2  0  1     1.100    611
            0  1  1  1     1.100    612
            0  0  2  1     1.100    613
            1  0  0  3     1.450    614
            0  1  0  3     1.450    615
            0  0  1  3     1.450    616

 C                                   34   35   36   37   38   39   40   41   42   43   44   45   46   47   48
                                     49   50   51   52   53   54   55   56   57   58   59
                                  ---------------------------------------------------------------------------
            0  0  0  0     7.680    617  637  657  677  697  717  737  757  777  797  817  837  857  877  897
                                    917  937  957  977  997 1017 1037 1057 1077 1097 1117
            0  0  0  0     5.000    618  638  658  678  698  718  738  758  778  798  818  838  858  878  898
                                    918  938  958  978  998 1018 1038 1058 1078 1098 1118
            0  0  0  1     1.280    619  639  659  679  699  719  739  759  779  799  819  839  859  879  899
                                    919  939  959  979  999 1019 1039 1059 1079 1099 1119
            0  0  0  1     2.100    620  640  660  680  700  720  740  760  780  800  820  840  860  880  900
                                    920  940  960  980 1000 1020 1040 1060 1080 1100 1120
            0  0  0  1     4.600    621  641  661  681  701  721  741  761  781  801  821  841  861  881  901
                                    921  941  961  981 1001 1021 1041 1061 1081 1101 1121
            1  0  0  0     0.820    622  642  662  682  702  722  742  762  782  802  822  842  862  882  902
                                    922  942  962  982 1002 1022 1042 1062 1082 1102 1122
            0  1  0  0     0.820    623  643  663  683  703  723  743  763  783  803  823  843  863  883  903
                                    923  943  963  983 1003 1023 1043 1063 1083 1103 1123
            0  0  1  0     0.820    624  644  664  684  704  724  744  764  784  804  824  844  864  884  904
                                    924  944  964  984 1004 1024 1044 1064 1084 1104 1124
            1  0  0  0     1.480    625  645  665  685  705  725  745  765  785  805  825  845  865  885  905
                                    925  945  965  985 1005 1025 1045 1065 1085 1105 1125
            0  1  0  0     1.480    626  646  666  686  706  726  746  766  786  806  826  846  866  886  906
                                    926  946  966  986 1006 1026 1046 1066 1086 1106 1126
            0  0  1  0     1.480    627  647  667  687  707  727  747  767  787  807  827  847  867  887  907
                                    927  947  967  987 1007 1027 1047 1067 1087 1107 1127
            1  0  0  0     2.940    628  648  668  688  708  728  748  768  788  808  828  848  868  888  908
                                    928  948  968  988 1008 1028 1048 1068 1088 1108 1128
            0  1  0  0     2.940    629  649  669  689  709  729  749  769  789  809  829  849  869  889  909
                                    929  949  969  989 1009 1029 1049 1069 1089 1109 1129
            0  0  1  0     2.940    630  650  670  690  710  730  750  770  790  810  830  850  870  890  910
                                    930  950  970  990 1010 1030 1050 1070 1090 1110 1130
            2  0  0  0     2.200    631  651  671  691  711  731  751  771  791  811  831  851  871  891  911
                                    931  951  971  991 1011 1031 1051 1071 1091 1111 1131
            1  1  0  0     2.200    632  652  672  692  712  732  752  772  792  812  832  852  872  892  912
                                    932  952  972  992 1012 1032 1052 1072 1092 1112 1132
            1  0  1  0     2.200    633  653  673  693  713  733  753  773  793  813  833  853  873  893  913
                                    933  953  973  993 1013 1033 1053 1073 1093 1113 1133
            0  2  0  0     2.200    634  654  674  694  714  734  754  774  794  814  834  854  874  894  914
                                    934  954  974  994 1014 1034 1054 1074 1094 1114 1134
            0  1  1  0     2.200    635  655  675  695  715  735  755  775  795  815  835  855  875  895  915
[...]
     450       13.0036         0.000       
     449       12.9216         0.000       
     448       12.9173         0.000       
     447       12.8787         0.000       
     446       12.8123         0.000       
     445       12.7538         0.000       
     444       12.6208         0.000       
     443       12.6092         0.000       
     442       12.5396         0.000       
     441       12.5033         0.000       
     440       12.3847         0.000       
     439       12.2976         0.000       
     438       12.2254         0.000       
     437       12.1960         0.000       
     436       12.1702         0.000       
     435       12.0260         0.000       
     434       11.9785         0.000       
     433       11.9297         0.000       
     432       11.8943         0.000       
     431       11.8393         0.000       
     430       11.7538         0.000       
     429       11.7394         0.000       
     428       11.6755         0.000       
     427       11.6479         0.000       
     426       11.5601         0.000       
     425       11.4804         0.000       
     424       11.3971         0.000       
     423       11.3441         0.000       
     422       11.3329         0.000       
     421       11.2850         0.000       
     420       11.2476         0.000       
     419       11.1668         0.000       
     418       11.1397         0.000       
     417       11.1321         0.000       
     416       11.0318         0.000       
     415       10.9741         0.000       
     414       10.8918         0.000       
     413       10.8043         0.000       
     412       10.7399         0.000       
     411       10.6740         0.000       
     410       10.5975         0.000       
     409       10.5672         0.000       
     408       10.4918         0.000       
     407       10.4595         0.000       
     406       10.2739         0.000       
     405       10.2676         0.000       
     404       10.2324         0.000       
     403       10.1539         0.000       
     402       10.1189         0.000       
     401       10.0926         0.000       
     400       10.0299         0.000       
     399        9.9523         0.000       
     398        9.9188         0.000       
     397        9.8759         0.000       
     396        9.7624         0.000       
     395        9.6984         0.000       
     394        9.5936         0.000       
     393        9.5568         0.000       
     392        9.5210         0.000       
     391        9.4271         0.000       
     390        9.3826         0.000       
     389        9.3475         0.000       
     388        9.2074         0.000       
     387        9.1624         0.000       
     386        9.0305         0.000       
     385        8.8633         0.000       
     384        8.8175         0.000       
     383        8.7303         0.000       
     382        8.6395         0.000       
     381        8.5493         0.000       
     380        8.4787         0.000       
     379        8.3982         0.000       
     378        8.3308         0.000       
     377        8.2369         0.000       
     376        8.1481         0.000       
     375        8.1087         0.000       
     374        8.0187         0.000       
     373        7.9419         0.000       
     372        7.9027         0.000       
     371        7.8555         0.000       
     370        7.8090         0.000       
     369        7.6970         0.000       
     368        7.6504         0.000       
     367        7.5713         0.000       
     366        7.5406         0.000       
     365        7.4082         0.000       
     364        7.3860         0.000       
     363        7.3315         0.000       
     362        7.2793         0.000       
     361        7.2318         0.000       
     360        7.1828         0.000       
     359        7.1347         0.000       
     358        7.0117         0.000       
     357        6.9601         0.000       
     356        6.9099         0.000       
     355        6.8477         0.000       
     354        6.8373         0.000       
     353        6.8305         0.000       
     352        6.7718         0.000       
     351        6.7482         0.000       
     350        6.6873         0.000       
     349        6.6465         0.000       
     348        6.6059         0.000       
     347        6.5438         0.000       
     346        6.5119         0.000       
     345        6.4631         0.000       
     344        6.3755         0.000       
     343        6.3617         0.000       
     342        6.3283         0.000       
     341        6.2967         0.000       
     340        6.1947         0.000       
     339        6.1572         0.000       
     338        6.1339         0.000       
     337        6.0164         0.000       
     336        6.0029         0.000       
     335        5.9565         0.000       
     334        5.8922         0.000       
     333        5.7952         0.000       
     332        5.7422         0.000       
     331        5.6606         0.000       
     330        5.6406         0.000       
     329        5.5376         0.000       
     328        5.5167         0.000       
     327        5.4708         0.000       
     326        5.4479         0.000       
     325        5.3828         0.000       
     324        5.2940         0.000       
     323        5.2428         0.000       
     322        5.1566         0.000       
     321        5.0811         0.000       
     320        5.0283         0.000       
     319        5.0152         0.000       
     318        4.9819         0.000       
     317        4.9065         0.000       
     316        4.8728         0.000       
     315        4.8087         0.000       
     314        4.7512         0.000       
     313        4.7445         0.000       
     312        4.6272         0.000       
     311        4.5801         0.000       
     310        4.4436         0.000       
     309        4.3977         0.000       
     308        4.3234         0.000       
     307        4.2555         0.000       
     306        4.1893         0.000       
     305        4.1495         0.000       
     304        4.0299         0.000       
     303        3.9570         0.000       
     302        3.8711         0.000       
     301        3.8177         0.000       
     300        3.7717         0.000       
     299        3.7427         0.000       
     298        3.6831         0.000       
     297        3.6073         0.000       
     296        3.5382         0.000       
     295        3.4876         0.000       
     294        3.4289         0.000       
     293        3.3388         0.000       
     292        3.2966         0.000       
     291        3.2548         0.000       
     290        3.1835         0.000       
     289        3.1534         0.000       
     288        3.1148         0.000       
     287        3.0922         0.000       
     286        3.0357         0.000       
     285        2.9973         0.000       
     284        2.9287         0.000       
     283        2.8480         0.000       
     282        2.7901         0.000       
     281        2.7628         0.000       
     280        2.7178         0.000       
     279        2.6419         0.000       
     278        2.5599         0.000       
     277        2.4818         0.000       
     276        2.4396         0.000       
     275        2.4358         0.000       
     274        2.3743         0.000       
     273        2.3429         0.000       
     272        2.2924         0.000       
     271        2.1939         0.000       
     270        2.1300         0.000       
     269        2.1273         0.000       
     268        2.0499         0.000       
     267        1.9445         0.000       
     266        1.8828         0.000       
     265        1.8421         0.000       
     264        1.8340         0.000       
     263        1.8117         0.000       
     262        1.7268         0.000       
     261        1.6926         0.000       
     260        1.5018         0.000       
     259        1.4865         0.000       
     258        1.3904         0.000       
     257        1.2461         0.000       
     256        1.1847         0.000       
     255        1.1434         0.000       
     254        1.1334         0.000       
     253        0.9886         0.000       
     252        0.9505         0.000       
     251        0.9268         0.000       
     250        0.7754         0.000       
     249        0.7420         0.000       
     248        0.6314         0.000       
     247        0.5472         0.000       
     246        0.4440         0.000       
     245        0.2996         0.000       
     244        0.2836         0.000       
     243        0.1864         0.000       
     242        0.1020         0.000       
     241        0.0561         0.000       
     240        0.0026         0.000       
     239       -0.4015         0.000       
     238       -0.5358         0.000       
     237       -1.0511         0.000 < LUMO
     236       -4.2376         2.000 < HOMO
     235       -6.1769         2.000       
     234       -6.6638         2.000       
     233       -6.7297         2.000       
     232       -6.9925         2.000       
     231       -7.1766         2.000       
     230       -7.3287         2.000       
     229       -7.4423         2.000       
     228       -7.8692         2.000       
     227       -8.0426         2.000       
     226       -8.1623         2.000       
     225       -8.2829         2.000       
     224       -8.3585         2.000       
     223       -8.4475         2.000       
     222       -8.5457         2.000       
     221       -8.6005         2.000       
     220       -8.6685         2.000       
     219       -8.7095         2.000       
     218       -8.7854         2.000       
     217       -8.8147         2.000       
     216       -8.8376         2.000       
     215       -8.9345         2.000       
     214       -8.9465         2.000       
     213       -9.0126         2.000       
     212       -9.0656         2.000       
     211       -9.1622         2.000       
     210       -9.2775         2.000       
     209       -9.4020         2.000       
     208       -9.4442         2.000       
     207       -9.5454         2.000       
     206       -9.5784         2.000       
     205       -9.6035         2.000       
     204       -9.6458         2.000       
     203       -9.6879         2.000       
     202       -9.7118         2.000       
     201       -9.8332         2.000       
     200       -9.8677         2.000       
     199       -9.9471         2.000       
     198       -9.9938         2.000       
     197      -10.0714         2.000       
     196      -10.1310         2.000       
     195      -10.1756         2.000       
     194      -10.2292         2.000       
     193      -10.2748         2.000       
     192      -10.3728         2.000       
     191      -10.5620         2.000       
     190      -10.6336         2.000       
     189      -10.6531         2.000       
     188      -10.7662         2.000       
     187      -10.8215         2.000       
     186      -10.8243         2.000       
     185      -10.9888         2.000       
     184      -11.0362         2.000       
     183      -11.0664         2.000       
     182      -11.1944         2.000       
     181      -11.2186         2.000       
     180      -11.2877         2.000       
     179      -11.4242         2.000       
     178      -11.5789         2.000       
     177      -11.6640         2.000       
     176      -11.7162         2.000       
     175      -11.8825         2.000       
     174      -12.0003         2.000       
     173      -12.1780         2.000       
     172      -12.2133         2.000       
     171      -12.2797         2.000       
     170      -12.3040         2.000       
     169      -12.3228         2.000       
     168      -12.3471         2.000       
     167      -12.3572         2.000       
     166      -12.3979         2.000       
     165      -12.4438         2.000       
     164      -12.5059         2.000       
     163      -12.5510         2.000       
     162      -12.5950         2.000       
     161      -12.6505         2.000       
     160      -12.6837         2.000       
     159      -12.8369         2.000       
     158      -13.0204         2.000       
     157      -13.0696         2.000       
     156      -13.1351         2.000       
     155      -13.1459         2.000       
     154      -13.2800         2.000       
     153      -13.3664         2.000       
     152      -13.4522         2.000       
     151      -13.4728         2.000       
     150      -13.5187         2.000       
     149      -13.7077         2.000       
     148      -13.7677         2.000       
     147      -13.7968         2.000       
     146      -14.1182         2.000       
     145      -14.2381         2.000       
     144      -14.3135         2.000       
     143      -14.5741         2.000       
     142      -14.7955         2.000       
     141      -14.9497         2.000       
     140      -15.1107         2.000       
     139      -15.2399         2.000       
     138      -15.4699         2.000       
     137      -15.4934         2.000       
     136      -15.6782         2.000       
     135      -15.7607         2.000       
     134      -15.9226         2.000       
     133      -15.9802         2.000       
     132      -15.9922         2.000       
     131      -16.0807         2.000       
     130      -16.7891         2.000       
     129      -16.9427         2.000       
     128      -17.0589         2.000       
     127      -17.0785         2.000       
     126      -17.1598         2.000       
     125      -17.2370         2.000       
     124      -17.2628         2.000       
     123      -17.4229         2.000       
     122      -17.4556         2.000       
     121      -17.4975         2.000       
     120      -18.1058         2.000       
     119      -18.4303         2.000       
     118      -18.7813         2.000       
     117      -18.9820         2.000       
     116      -19.6352         2.000       
     115      -20.4184         2.000       
     114      -20.8045         2.000       
     113      -20.8381         2.000       
     112      -20.9103         2.000       
     111      -20.9228         2.000       
     110      -20.9868         2.000       
     109      -21.0018         2.000       
     108      -21.1141         2.000       
     107      -21.1793         2.000       
     106      -21.2377         2.000       
     105      -21.6110         2.000       
     104      -21.6349         2.000       
     103      -22.3496         2.000       
     102      -22.4630         2.000       
     101      -23.4664         2.000       
     100      -23.5556         2.000       
      99      -23.7362         2.000       
      98      -23.8978         2.000       
      97      -23.9791         2.000       
      96      -24.5075         2.000       
      95      -24.7525         2.000       
      94      -26.9466         2.000       
      93      -28.4076         2.000       
      92      -29.9643         2.000       
      91      -31.4077         2.000       
      90      -34.6797         2.000       
      89      -34.8325         2.000       
      88      -35.0761         2.000       
      87      -35.3020         2.000       
      86      -57.1033         2.000       
      85      -57.5880         2.000       
      84      -57.8650         2.000       
      83      -92.8996         2.000       
      82     -128.9240         2.000       
      81     -129.0103         2.000       
      80     -129.0222         2.000       
      79     -129.1585         2.000       
      78     -129.2316         2.000       
      77     -129.2436         2.000       
      76     -166.1210         2.000       
      75     -166.1371         2.000       
      74     -166.1742         2.000       
      73     -180.7997         2.000       
      72     -181.0229         2.000       
      71     -197.5477         2.000       
      70     -197.5609         2.000       
      69     -197.8443         2.000       
      68     -223.6920         2.000       
      67     -261.1960         2.000       
      66     -278.0409         2.000       
      65     -278.0833         2.000       
      64     -278.1181         2.000       
      63     -278.1918         2.000       
      62     -278.2240         2.000       
      61     -278.2256         2.000       
      60     -278.2290         2.000       
      59     -278.2319         2.000       
      58     -278.2455         2.000       
      57     -278.2824         2.000       
      56     -278.2901         2.000       
      55     -278.3198         2.000       
      54     -278.3764         2.000       
      53     -278.4102         2.000       
      52     -278.4155         2.000       
      51     -278.4175         2.000       
      50     -278.4493         2.000       
      49     -278.4528         2.000       
      48     -278.4731         2.000       
      47     -278.4908         2.000       
      46     -278.5085         2.000       
      45     -278.5335         2.000       
      44     -278.6131         2.000       
      43     -278.6372         2.000       
      42     -278.7411         2.000       
      41     -278.7777         2.000       
      40     -278.8657         2.000       
      39     -278.8852         2.000       
      38     -278.9997         2.000       
      37     -279.0353         2.000       
      36     -279.2033         2.000       
      35     -279.6910         2.000       
      34     -279.7591         2.000       
      33     -279.8870         2.000       
      32     -280.1808         2.000       
      31     -280.8847         2.000       
      30     -281.1482         2.000       
      29     -281.1885         2.000       
      28     -281.2354         2.000       
      27     -281.2430         2.000       
      26     -337.1856         2.000       
      25     -337.2006         2.000       
      24     -337.2563         2.000       
      23     -337.3365         2.000       
      22     -337.3427         2.000       
      21     -393.4964         2.000       
      20     -523.1335         2.000       
      19     -523.1906         2.000       
      18     -523.7773         2.000       
      17     -531.0337         2.000       
      16     -531.1972         2.000       
      15     -531.2859         2.000       
      14     -653.0084         2.000       
      13     -675.2539         2.000       
      12     -675.3939         2.000       
      11     -675.4083         2.000       
      10     -675.4486         2.000       
       9    -2106.8472         2.000       
       8    -2107.0863         2.000       
       7    -2435.4618         2.000       
       6    -2777.4208         2.000       
       5    -3189.1583         2.000       
       4    -3189.2326         2.000       
       3    -3189.2633         2.000       
       2    -3560.1671         2.000       
       1   -24223.3432         2.000       

AMS application finished. Exiting.
NORMAL TERMINATION
     Total cpu time:    7413.30
  Total system time:      63.25
 Total elapsed time:    7499.37
NORMAL TERMINATION
