

 Parallel Execution: Process Information
 ==============================================================================
 Rank   Node Name                              NodeID   MyNodeRank  NodeMaster
    0   eu-g5-011-4                               0          0          0
    1   eu-g5-011-4                               1          0          1
    2   eu-g5-011-4                               0          1         -1
    3   eu-g5-011-4                               1          1         -1
    4   eu-g5-011-4                               0          2         -1
    5   eu-g5-011-4                               1          2         -1
    6   eu-g5-011-4                               0          3         -1
    7   eu-g5-011-4                               1          3         -1
    8   eu-g5-011-4                               0          4         -1
    9   eu-g5-011-4                               1          4         -1
   10   eu-g5-011-4                               0          5         -1
   11   eu-g5-011-4                               1          5         -1
   12   eu-g5-011-4                               0          6         -1
   13   eu-g5-011-4                               1          6         -1
   14   eu-g5-011-4                               0          7         -1
   15   eu-g5-011-4                               1          7         -1
 ==============================================================================


May use up to 30549MB of RAM as shared memory on node 0
May use up to 30759MB of RAM as shared memory on node 1

 *******************************************************************************
 *                                                                             *
 *  --------------------------------                                           *
 *   Amsterdam Modeling Suite (AMS)              2023.101                      *
 *  --------------------------------                                           *
 *                                               r111868 2023-03-31            *
 *                                                                             *
 *                                                                             *
 *                              =================                              *
 *                              |               |                              *
 *                              |     A M S     |                              *
 *                              |               |                              *
 *                              =================                              *
 *                                                                             *
 *                                                                             *
 *   Online information and documentation:  https://www.scm.com/support/       *
 *   E-mail:  support@scm.com   info@scm.com                                   *
 *                                                                             *
 *   Scientific publications using AMS results must be properly referenced     *
 *   See the User Manuals (or the web site) for recommended citations          *
 *   The terms and conditions of the End User License Agreement apply to       *
 *   the use of AMS, https://www.scm.com/license-terms/                        *
 *                                                                             *
 ***********************  x86_64_linux_intel / openmpi  ************************
 
 Licensed to: D-CHAB / ETH site license / Zurich / Switzerland 2023-06-23 15:55:12
 SCM User ID: u7035
  
 AMS 2023.101  RunTime: May25-2024 09:19:13  ShM Nodes: 2  Procs: 16

 AMS jobname: ts_fdppe
 AMS jobid  : 2015705584

 Start   directory: /cluster/scratch/sroediger/michael/eda/
 Results directory: /cluster/scratch/sroediger/michael/eda/ts_fdppe.results/
 Scratch directory: /scratch/amstmp_ts_fdppe_kid0.2015705584/


 Communication costs MPI_COMM_WORLD:      8.527 usec per message,   0.0165 usec per 8-byte item
 Communication costs for intra-node:      4.142 usec per message,   0.0195 usec per 8-byte item

 RNG seed: 850789081 1248165108 -1394451486 1120265407 204455029 -939177855 1473907473 918572258



                     *************************************************************************
                     *  ADF 2023.101  RunTime: May25-2024 09:19:14  ShM Nodes: 2  Procs: 16  *
                     *************************************************************************
  

       ****************************
       * SINGLE POINT CALCULATION *
       ****************************
 
--------
Geometry
--------
Formula: C40H12ClF24NO3P2PdS
Atoms
  Index Symbol   x (angstrom)   y (angstrom)   z (angstrom)
      1      C     1.19752000     2.17237200     0.59285400       region=pdsubstrate adf.f=pdsubstrate
      2      C     1.40403400     3.20759600    -0.33146900       region=pdsubstrate adf.f=pdsubstrate
      3      H     0.58310800     3.57776600    -0.94671200       region=pdsubstrate adf.f=pdsubstrate
      4      C     2.69057100     3.70081000    -0.48082100       region=pdsubstrate adf.f=pdsubstrate
      5      H     2.91216900     4.45807600    -1.23615000       region=pdsubstrate adf.f=pdsubstrate
      6      C     3.75172300     3.22518000     0.31258000       region=pdsubstrate adf.f=pdsubstrate
      7      C     3.49906500     2.32435400     1.34596000       region=pdsubstrate adf.f=pdsubstrate
      8      H     4.27701900     2.02780800     2.04731000       region=pdsubstrate adf.f=pdsubstrate
      9      C     2.19460800     1.83174400     1.52319100       region=pdsubstrate adf.f=pdsubstrate
     10      C     1.65765800     1.13192000     2.66825200       region=pdsubstrate adf.f=pdsubstrate
     11      C     2.34912200     0.44909100     3.66793100       region=pdsubstrate adf.f=pdsubstrate
     12      C     1.67530200    -0.10339100     4.74834600       region=pdsubstrate adf.f=pdsubstrate
     13      C     0.28642000     0.02565100     4.83340500       region=pdsubstrate adf.f=pdsubstrate
     14      C    -0.42261200     0.68391200     3.83503300       region=pdsubstrate adf.f=pdsubstrate
     15      C     0.24571700     1.25089300     2.75010100       region=pdsubstrate adf.f=pdsubstrate
     16      N    -0.35695100     1.87611200     1.65555300       region=pdsubstrate adf.f=pdsubstrate
     17      S    -1.53700000     3.05762500     1.79347000       region=pdsubstrate adf.f=pdsubstrate
     18      O    -1.44463800     3.68535200     3.09864800       region=pdsubstrate adf.f=pdsubstrate
     19      O    -1.46501700     3.82342400     0.55937500       region=pdsubstrate adf.f=pdsubstrate
     20      C    -3.08298000     2.10275600     1.71901600       region=pdsubstrate adf.f=pdsubstrate
     21     Cl    -4.42665100     3.11201700     1.18987800       region=pdsubstrate adf.f=pdsubstrate
     22      H    -3.27791000     1.71840500     2.72370100       region=pdsubstrate adf.f=pdsubstrate
     23      H    -2.92575000     1.28703400     1.00380900       region=pdsubstrate adf.f=pdsubstrate
     24      F    -1.74796100     0.72663400     3.93260800       region=pdsubstrate adf.f=pdsubstrate
     25      F    -0.35807200    -0.51968600     5.85044600       region=pdsubstrate adf.f=pdsubstrate
     26      F     2.33115800    -0.76032100     5.69107000       region=pdsubstrate adf.f=pdsubstrate
     27      F     3.66995700     0.30477900     3.59973700       region=pdsubstrate adf.f=pdsubstrate
     28      O     4.97548600     3.71928400     0.01072800       region=pdsubstrate adf.f=pdsubstrate
     29      C     6.07053500     3.31163900     0.78282500       region=pdsubstrate adf.f=pdsubstrate
     30      H     6.95485900     3.80192200     0.35705100       region=pdsubstrate adf.f=pdsubstrate
     31      H     6.21528900     2.21823700     0.74121100       region=pdsubstrate adf.f=pdsubstrate
     32      H     5.96380400     3.61700500     1.83850100       region=pdsubstrate adf.f=pdsubstrate
     33     Pd    -0.17486400     0.83032500    -0.14697900       region=pdsubstrate adf.f=pdsubstrate
     34      P     1.14137500    -0.44124500    -1.51833700       region=ligand adf.f=ligand
     35      P    -1.92421100    -0.25123200    -1.30626300       region=ligand adf.f=ligand
     36      C    -1.23824800    -0.32617000    -3.02767600       region=ligand adf.f=ligand
     37      H    -1.88899500    -0.90003500    -3.70015500       region=ligand adf.f=ligand
     38      H    -1.27543000     0.73065100    -3.33318400       region=ligand adf.f=ligand
     39      C     0.20276200    -0.83987600    -3.08617600       region=ligand adf.f=ligand
     40      H     0.73174400    -0.39106400    -3.93636200       region=ligand adf.f=ligand
     41      H     0.21878600    -1.92507600    -3.23492800       region=ligand adf.f=ligand
     42      C    -2.02865700    -1.97394900    -0.68870700       region=ligand adf.f=ligand
     43      C    -2.14454400    -2.12391500     0.69884200       region=ligand adf.f=ligand
     44      C    -1.94314500    -3.33926400     1.34020900       region=ligand adf.f=ligand
     45      C    -1.62576900    -4.46136800     0.57529800       region=ligand adf.f=ligand
     46      C    -1.53597300    -4.35654900    -0.80978800       region=ligand adf.f=ligand
     47      C    -1.77363400    -3.13113600    -1.42767400       region=ligand adf.f=ligand
     48      C    -3.63157700     0.34990800    -1.54751400       region=ligand adf.f=ligand
     49      C    -3.75970600     1.66470900    -2.01569400       region=ligand adf.f=ligand
     50      C    -4.98745100     2.30615900    -2.10637300       region=ligand adf.f=ligand
     51      C    -6.13611200     1.63103600    -1.69664500       region=ligand adf.f=ligand
     52      C    -6.04349100     0.32667600    -1.21705800       region=ligand adf.f=ligand
     53      C    -4.80234500    -0.30230400    -1.14904700       region=ligand adf.f=ligand
     54      C     2.74382900     0.27303500    -2.00004600       region=ligand adf.f=ligand
     55      C     3.95278300    -0.03575600    -1.36917300       region=ligand adf.f=ligand
     56      C     5.10542900     0.70594600    -1.60192600       region=ligand adf.f=ligand
     57      C     5.06311100     1.81405500    -2.44359300       region=ligand adf.f=ligand
     58      C     3.86934300     2.15716000    -3.07362100       region=ligand adf.f=ligand
     59      C     2.73291400     1.39600200    -2.83175800       region=ligand adf.f=ligand
     60      C     1.53608200    -2.12035500    -0.89555000       region=ligand adf.f=ligand
     61      C     1.25842900    -2.49246200     0.42186600       region=ligand adf.f=ligand
     62      C     1.42357000    -3.80504900     0.85938400       region=ligand adf.f=ligand
     63      C     1.90918800    -4.77204000    -0.01591200       region=ligand adf.f=ligand
     64      C     2.22798700    -4.42206600    -1.32858800       region=ligand adf.f=ligand
     65      C     2.05762800    -3.10522000    -1.74004400       region=ligand adf.f=ligand
     66      F    -2.67237000     2.33674000    -2.37136900       region=ligand adf.f=ligand
     67      F    -5.07114600     3.54191300    -2.55079100       region=ligand adf.f=ligand
     68      F    -7.30716400     2.22599800    -1.76130500       region=ligand adf.f=ligand
     69      F    -7.13298900    -0.31250300    -0.83707700       region=ligand adf.f=ligand
     70      F    -4.77756700    -1.54632300    -0.69214100       region=ligand adf.f=ligand
     71      F    -2.41725100    -1.06921500     1.45167700       region=ligand adf.f=ligand
     72      F    -2.02346900    -3.43239700     2.64997400       region=ligand adf.f=ligand
     73      F    -1.38011100    -5.61214000     1.16058000       region=ligand adf.f=ligand
     74      F    -1.22029500    -5.41814600    -1.52888200       region=ligand adf.f=ligand
     75      F    -1.70942700    -3.10728400    -2.75332700       region=ligand adf.f=ligand
     76      F     1.58911400     1.78511700    -3.38787900       region=ligand adf.f=ligand
     77      F     4.03974600    -1.04024200    -0.50920700       region=ligand adf.f=ligand
     78      F     6.23259400     0.39205200    -0.98607600       region=ligand adf.f=ligand
     79      F     6.14483800     2.53587800    -2.63292200       region=ligand adf.f=ligand
     80      F     3.80878700     3.22787200    -3.84142400       region=ligand adf.f=ligand
     81      F     0.79452600    -1.62649100     1.30657600       region=ligand adf.f=ligand
     82      F     1.09865700    -4.13657300     2.09402900       region=ligand adf.f=ligand
     83      F     2.05732500    -6.01246700     0.38875100       region=ligand adf.f=ligand
     84      F     2.70317800    -5.33155200    -2.15518400       region=ligand adf.f=ligand
     85      F     2.39462800    -2.79636500    -2.98429100       region=ligand adf.f=ligand
 
Total System Charge             0.00000
Bonding info available!
 
 
----------------
ADF Engine Input
----------------
 
 Basis
 Type TZP
 Core None
 End
 Fragments
 ligand ./ts_fdppe.ligand.results/adf.rkf
 pdsubstrate ./ts_fdppe.pdsubstrate.results/adf.rkf
 End
 XC
 Hybrid PBE0
 DISPERSION Grimme3 BJDAMP
 End
 NumericalQuality VeryGood
 

 Title: *** (NO TITLE) ***

 *** adf ***



 ===========================
 A T T A C H E D   F I L E S
 ===========================
  



 ===============================
 M O D E L   P A R A M E T E R S
 ===============================
  
 DENSITY FUNCTIONAL POTENTIAL (scf)
    Hybrid:                            PBE0                                    == Not Default ==

 SPIN  (restricted / unrestr.)
    Molecule:                          Restricted                               
    Fragments:                         Restricted                               

 OTHER ASPECTS
    Relativistic Corrections:          scalar (ZORA,MAPA)                       

    Nuclear Charge Density Model:      Point Charge Nuclei                      
    Core Treatment:                    Frozen Orbital(s)                        

    Hyperfine or Zeeman Interaction:   ---                                      

 Settings for Grimme D3 dispersion correction

      damping                        BJ
      s6                          1.000
      s8                          1.218
      a1                          0.414
      a2                          4.859

 Other (technical) parameters

      alpha                      14.000
      version                         4
 


 Fragment File(s)
 ----------------
 pdsubstrate:
         file : ./ts_fdppe.pdsubstrate.results/adf.rkf
         jobid: 1224012582
         title: *** adf ***
 ligand:
         file : ./ts_fdppe.ligand.results/adf.rkf
         jobid: 343624612
         title: *** adf ***



 ===============
 G E O M E T R Y  ***  3D  Molecule  ***
 ===============
  

 ATOMS
 =====                            X Y Z                    CHARGE
                                (Angstrom)             Nucl     +Core       At.Mass
                       --------------------------    ----------------       -------
    1  C               1.1975    2.1724    0.5929      6.00      6.00       12.0000
    2  C               1.4040    3.2076   -0.3315      6.00      6.00       12.0000
    3  H               0.5831    3.5778   -0.9467      1.00      1.00        1.0078
    4  C               2.6906    3.7008   -0.4808      6.00      6.00       12.0000
    5  H               2.9122    4.4581   -1.2362      1.00      1.00        1.0078
    6  C               3.7517    3.2252    0.3126      6.00      6.00       12.0000
    7  C               3.4991    2.3244    1.3460      6.00      6.00       12.0000
    8  H               4.2770    2.0278    2.0473      1.00      1.00        1.0078
    9  C               2.1946    1.8317    1.5232      6.00      6.00       12.0000
   10  C               1.6577    1.1319    2.6683      6.00      6.00       12.0000
   11  C               2.3491    0.4491    3.6679      6.00      6.00       12.0000
   12  C               1.6753   -0.1034    4.7483      6.00      6.00       12.0000
   13  C               0.2864    0.0257    4.8334      6.00      6.00       12.0000
   14  C              -0.4226    0.6839    3.8350      6.00      6.00       12.0000
   15  C               0.2457    1.2509    2.7501      6.00      6.00       12.0000
   16  N              -0.3570    1.8761    1.6556      7.00      7.00       14.0031
   17  S              -1.5370    3.0576    1.7935     16.00     16.00       31.9721
   18  O              -1.4446    3.6854    3.0986      8.00      8.00       15.9949
   19  O              -1.4650    3.8234    0.5594      8.00      8.00       15.9949
   20  C              -3.0830    2.1028    1.7190      6.00      6.00       12.0000
   21  Cl             -4.4267    3.1120    1.1899     17.00     17.00       34.9689
   22  H              -3.2779    1.7184    2.7237      1.00      1.00        1.0078
   23  H              -2.9257    1.2870    1.0038      1.00      1.00        1.0078
   24  F              -1.7480    0.7266    3.9326      9.00      9.00       18.9984
   25  F              -0.3581   -0.5197    5.8504      9.00      9.00       18.9984
   26  F               2.3312   -0.7603    5.6911      9.00      9.00       18.9984
   27  F               3.6700    0.3048    3.5997      9.00      9.00       18.9984
   28  O               4.9755    3.7193    0.0107      8.00      8.00       15.9949
   29  C               6.0705    3.3116    0.7828      6.00      6.00       12.0000
   30  H               6.9549    3.8019    0.3571      1.00      1.00        1.0078
   31  H               6.2153    2.2182    0.7412      1.00      1.00        1.0078
   32  H               5.9638    3.6170    1.8385      1.00      1.00        1.0078
   33  Pd             -0.1749    0.8303   -0.1470     46.00     46.00      105.9035
   34  P               1.1414   -0.4412   -1.5183     15.00     15.00       30.9738
   35  P              -1.9242   -0.2512   -1.3063     15.00     15.00       30.9738
   36  C              -1.2382   -0.3262   -3.0277      6.00      6.00       12.0000
   37  H              -1.8890   -0.9000   -3.7002      1.00      1.00        1.0078
   38  H              -1.2754    0.7307   -3.3332      1.00      1.00        1.0078
   39  C               0.2028   -0.8399   -3.0862      6.00      6.00       12.0000
   40  H               0.7317   -0.3911   -3.9364      1.00      1.00        1.0078
   41  H               0.2188   -1.9251   -3.2349      1.00      1.00        1.0078
   42  C              -2.0287   -1.9739   -0.6887      6.00      6.00       12.0000
   43  C              -2.1445   -2.1239    0.6988      6.00      6.00       12.0000
   44  C              -1.9431   -3.3393    1.3402      6.00      6.00       12.0000
   45  C              -1.6258   -4.4614    0.5753      6.00      6.00       12.0000
   46  C              -1.5360   -4.3565   -0.8098      6.00      6.00       12.0000
   47  C              -1.7736   -3.1311   -1.4277      6.00      6.00       12.0000
   48  C              -3.6316    0.3499   -1.5475      6.00      6.00       12.0000
   49  C              -3.7597    1.6647   -2.0157      6.00      6.00       12.0000
   50  C              -4.9875    2.3062   -2.1064      6.00      6.00       12.0000
   51  C              -6.1361    1.6310   -1.6966      6.00      6.00       12.0000
   52  C              -6.0435    0.3267   -1.2171      6.00      6.00       12.0000
   53  C              -4.8023   -0.3023   -1.1490      6.00      6.00       12.0000
   54  C               2.7438    0.2730   -2.0000      6.00      6.00       12.0000
   55  C               3.9528   -0.0358   -1.3692      6.00      6.00       12.0000
   56  C               5.1054    0.7059   -1.6019      6.00      6.00       12.0000
   57  C               5.0631    1.8141   -2.4436      6.00      6.00       12.0000
   58  C               3.8693    2.1572   -3.0736      6.00      6.00       12.0000
   59  C               2.7329    1.3960   -2.8318      6.00      6.00       12.0000
   60  C               1.5361   -2.1204   -0.8955      6.00      6.00       12.0000
   61  C               1.2584   -2.4925    0.4219      6.00      6.00       12.0000
   62  C               1.4236   -3.8050    0.8594      6.00      6.00       12.0000
   63  C               1.9092   -4.7720   -0.0159      6.00      6.00       12.0000
   64  C               2.2280   -4.4221   -1.3286      6.00      6.00       12.0000
   65  C               2.0576   -3.1052   -1.7400      6.00      6.00       12.0000
   66  F              -2.6724    2.3367   -2.3714      9.00      9.00       18.9984
   67  F              -5.0711    3.5419   -2.5508      9.00      9.00       18.9984
   68  F              -7.3072    2.2260   -1.7613      9.00      9.00       18.9984
   69  F              -7.1330   -0.3125   -0.8371      9.00      9.00       18.9984
   70  F              -4.7776   -1.5463   -0.6921      9.00      9.00       18.9984
   71  F              -2.4173   -1.0692    1.4517      9.00      9.00       18.9984
   72  F              -2.0235   -3.4324    2.6500      9.00      9.00       18.9984
   73  F              -1.3801   -5.6121    1.1606      9.00      9.00       18.9984
   74  F              -1.2203   -5.4181   -1.5289      9.00      9.00       18.9984
   75  F              -1.7094   -3.1073   -2.7533      9.00      9.00       18.9984
   76  F               1.5891    1.7851   -3.3879      9.00      9.00       18.9984
   77  F               4.0397   -1.0402   -0.5092      9.00      9.00       18.9984
   78  F               6.2326    0.3921   -0.9861      9.00      9.00       18.9984
   79  F               6.1448    2.5359   -2.6329      9.00      9.00       18.9984
   80  F               3.8088    3.2279   -3.8414      9.00      9.00       18.9984
   81  F               0.7945   -1.6265    1.3066      9.00      9.00       18.9984
   82  F               1.0987   -4.1366    2.0940      9.00      9.00       18.9984
   83  F               2.0573   -6.0125    0.3888      9.00      9.00       18.9984
   84  F               2.7032   -5.3316   -2.1552      9.00      9.00       18.9984
   85  F               2.3946   -2.7964   -2.9843      9.00      9.00       18.9984


 FRAGMENTS
 =========                                     Atoms in this Fragment     Cart. coord.s (Angstrom)
                                               -------------------------------------------------------
    1  pdsubstrate                                       1  C            1.1975    2.1724    0.5929
                                                         2  C            1.4040    3.2076   -0.3315
                                                         4  C            2.6906    3.7008   -0.4808
                                                         6  C            3.7517    3.2252    0.3126
                                                         7  C            3.4991    2.3244    1.3460
                                                         9  C            2.1946    1.8317    1.5232
                                                        10  C            1.6577    1.1319    2.6683
                                                        11  C            2.3491    0.4491    3.6679
                                                        12  C            1.6753   -0.1034    4.7483
                                                        13  C            0.2864    0.0257    4.8334
                                                        14  C           -0.4226    0.6839    3.8350
                                                        15  C            0.2457    1.2509    2.7501
                                                        20  C           -3.0830    2.1028    1.7190
                                                        29  C            6.0705    3.3116    0.7828
                                                         3  H            0.5831    3.5778   -0.9467
                                                         5  H            2.9122    4.4581   -1.2362
                                                         8  H            4.2770    2.0278    2.0473
                                                        22  H           -3.2779    1.7184    2.7237
                                                        23  H           -2.9257    1.2870    1.0038
                                                        30  H            6.9549    3.8019    0.3571
                                                        31  H            6.2153    2.2182    0.7412
                                                        32  H            5.9638    3.6170    1.8385
                                                        16  N           -0.3570    1.8761    1.6556
                                                        17  S           -1.5370    3.0576    1.7935
                                                        18  O           -1.4446    3.6854    3.0986
                                                        19  O           -1.4650    3.8234    0.5594
                                                        28  O            4.9755    3.7193    0.0107
                                                        21  Cl          -4.4267    3.1120    1.1899
                                                        24  F           -1.7480    0.7266    3.9326
                                                        25  F           -0.3581   -0.5197    5.8504
                                                        26  F            2.3312   -0.7603    5.6911
                                                        27  F            3.6700    0.3048    3.5997
                                                        33  Pd          -0.1749    0.8303   -0.1470
    2  ligand                                           53  C           -4.8023   -0.3023   -1.1490
                                                        54  C            2.7438    0.2730   -2.0000
                                                        55  C            3.9528   -0.0358   -1.3692
                                                        56  C            5.1054    0.7059   -1.6019
                                                        57  C            5.0631    1.8141   -2.4436
                                                        58  C            3.8693    2.1572   -3.0736
                                                        59  C            2.7329    1.3960   -2.8318
                                                        60  C            1.5361   -2.1204   -0.8955
                                                        61  C            1.2584   -2.4925    0.4219
                                                        62  C            1.4236   -3.8050    0.8594
                                                        63  C            1.9092   -4.7720   -0.0159
                                                        64  C            2.2280   -4.4221   -1.3286
                                                        65  C            2.0576   -3.1052   -1.7400
                                                        36  C           -1.2382   -0.3262   -3.0277
                                                        39  C            0.2028   -0.8399   -3.0862
                                                        42  C           -2.0287   -1.9739   -0.6887
                                                        43  C           -2.1445   -2.1239    0.6988
                                                        44  C           -1.9431   -3.3393    1.3402
                                                        45  C           -1.6258   -4.4614    0.5753
                                                        46  C           -1.5360   -4.3565   -0.8098
                                                        47  C           -1.7736   -3.1311   -1.4277
                                                        48  C           -3.6316    0.3499   -1.5475
                                                        49  C           -3.7597    1.6647   -2.0157
                                                        50  C           -4.9875    2.3062   -2.1064
                                                        51  C           -6.1361    1.6310   -1.6966
                                                        52  C           -6.0435    0.3267   -1.2171
                                                        66  F           -2.6724    2.3367   -2.3714
                                                        67  F           -5.0711    3.5419   -2.5508
                                                        68  F           -7.3072    2.2260   -1.7613
                                                        69  F           -7.1330   -0.3125   -0.8371
                                                        70  F           -4.7776   -1.5463   -0.6921
                                                        71  F           -2.4173   -1.0692    1.4517
                                                        72  F           -2.0235   -3.4324    2.6500
                                                        73  F           -1.3801   -5.6121    1.1606
                                                        74  F           -1.2203   -5.4181   -1.5289
                                                        75  F           -1.7094   -3.1073   -2.7533
                                                        76  F            1.5891    1.7851   -3.3879
                                                        77  F            4.0397   -1.0402   -0.5092
                                                        78  F            6.2326    0.3921   -0.9861
                                                        79  F            6.1448    2.5359   -2.6329
                                                        80  F            3.8088    3.2279   -3.8414
                                                        81  F            0.7945   -1.6265    1.3066
                                                        82  F            1.0987   -4.1366    2.0940
                                                        83  F            2.0573   -6.0125    0.3888
                                                        84  F            2.7032   -5.3316   -2.1552
                                                        85  F            2.3946   -2.7964   -2.9843
                                                        34  P            1.1414   -0.4412   -1.5183
                                                        35  P           -1.9242   -0.2512   -1.3063
                                                        37  H           -1.8890   -0.9000   -3.7002
                                                        38  H           -1.2754    0.7307   -3.3332
                                                        40  H            0.7317   -0.3911   -3.9364
                                                        41  H            0.2188   -1.9251   -3.2349



 =====================================
 S Y M M E T R Y ,   E L E C T R O N S
 =====================================
  
 Symmetry: NOSYM

 Irreducible Representations, including subspecies
 -------------------------------------------------
 A


 Configuration of Valence Electrons
 ==================================
 ( determined in the SCF procedure )

 Total:   608

 Net Charge: 0 (Nuclei minus Electrons)

 Aufbau principle for MO occupations will be applied through SCF cycle no.     150
 Thereafter, the program will assign electrons to MOs that are spatially
 similar to the occupied MOs in a "reference" cycle ("KeepOrbitals").
 The reference cycle is always the PREVIOUS cycle: it will evolve with
 the SCF procedure.
1
 ***************************************************************************************************



                                      ****************************************
                                      *  B U I L D : (Fragments, Functions)  *
                                      ****************************************
  

 The individual fragments are copies of the corresponding 'Master' fragments defined on the fragment files.
 However, they may have been rotated (and translated) with respect to the Master. The local coordinate axes
 of each fragment (which define for instance the spatial orientation in the current molecule of a fragment
 P:x orbital) are not necessarily those of the molecule.
 The local frame (if different from the molecular one) is printed to enable an interpretation of the expan-
 sion of an MO in Fragment Orbitals.



                                         *********************************
                                         *  Fragment Type : pdsubstrate  *
                                         *********************************
  

 Fragment no.    1   (in the list of all fragments)
 -----------------
 The local coordinate frame is identical to the molecular frame.

 Check Atomic Coordinates:

                  Master (on file)          After Computed Tranformation               As specified on Input
           ----------------------------     ----------------------------     ---------------------------------
     1)     1.19752   2.17237   0.59285      1.19752   2.17237   0.59285       1   1.19752   2.17237   0.59285
     2)     1.40403   3.20760  -0.33147      1.40403   3.20760  -0.33147       2   1.40403   3.20760  -0.33147
     3)     2.69057   3.70081  -0.48082      2.69057   3.70081  -0.48082       4   2.69057   3.70081  -0.48082
     4)     3.75172   3.22518   0.31258      3.75172   3.22518   0.31258       6   3.75172   3.22518   0.31258
     5)     3.49906   2.32435   1.34596      3.49906   2.32435   1.34596       7   3.49906   2.32435   1.34596
     6)     2.19461   1.83174   1.52319      2.19461   1.83174   1.52319       9   2.19461   1.83174   1.52319
     7)     1.65766   1.13192   2.66825      1.65766   1.13192   2.66825      10   1.65766   1.13192   2.66825
     8)     2.34912   0.44909   3.66793      2.34912   0.44909   3.66793      11   2.34912   0.44909   3.66793
     9)     1.67530  -0.10339   4.74835      1.67530  -0.10339   4.74835      12   1.67530  -0.10339   4.74835
    10)     0.28642   0.02565   4.83340      0.28642   0.02565   4.83340      13   0.28642   0.02565   4.83340
    11)    -0.42261   0.68391   3.83503     -0.42261   0.68391   3.83503      14  -0.42261   0.68391   3.83503
    12)     0.24572   1.25089   2.75010      0.24572   1.25089   2.75010      15   0.24572   1.25089   2.75010
    13)    -3.08298   2.10276   1.71902     -3.08298   2.10276   1.71902      20  -3.08298   2.10276   1.71902
    14)     6.07053   3.31164   0.78283      6.07053   3.31164   0.78283      29   6.07053   3.31164   0.78283
    15)     0.58311   3.57777  -0.94671      0.58311   3.57777  -0.94671       3   0.58311   3.57777  -0.94671
    16)     2.91217   4.45808  -1.23615      2.91217   4.45808  -1.23615       5   2.91217   4.45808  -1.23615
    17)     4.27702   2.02781   2.04731      4.27702   2.02781   2.04731       8   4.27702   2.02781   2.04731
    18)    -3.27791   1.71840   2.72370     -3.27791   1.71840   2.72370      22  -3.27791   1.71840   2.72370
    19)    -2.92575   1.28703   1.00381     -2.92575   1.28703   1.00381      23  -2.92575   1.28703   1.00381
    20)     6.95486   3.80192   0.35705      6.95486   3.80192   0.35705      30   6.95486   3.80192   0.35705
    21)     6.21529   2.21824   0.74121      6.21529   2.21824   0.74121      31   6.21529   2.21824   0.74121
    22)     5.96380   3.61700   1.83850      5.96380   3.61700   1.83850      32   5.96380   3.61700   1.83850
    23)    -0.35695   1.87611   1.65555     -0.35695   1.87611   1.65555      16  -0.35695   1.87611   1.65555
    24)    -1.53700   3.05762   1.79347     -1.53700   3.05762   1.79347      17  -1.53700   3.05762   1.79347
    25)    -1.44464   3.68535   3.09865     -1.44464   3.68535   3.09865      18  -1.44464   3.68535   3.09865
    26)    -1.46502   3.82342   0.55937     -1.46502   3.82342   0.55937      19  -1.46502   3.82342   0.55937
    27)     4.97549   3.71928   0.01073      4.97549   3.71928   0.01073      28   4.97549   3.71928   0.01073
    28)    -4.42665   3.11202   1.18988     -4.42665   3.11202   1.18988      21  -4.42665   3.11202   1.18988
    29)    -1.74796   0.72663   3.93261     -1.74796   0.72663   3.93261      24  -1.74796   0.72663   3.93261
    30)    -0.35807  -0.51969   5.85045     -0.35807  -0.51969   5.85045      25  -0.35807  -0.51969   5.85045
    31)     2.33116  -0.76032   5.69107      2.33116  -0.76032   5.69107      26   2.33116  -0.76032   5.69107
    32)     3.66996   0.30478   3.59974      3.66996   0.30478   3.59974      27   3.66996   0.30478   3.59974
    33)    -0.17486   0.83032  -0.14698     -0.17486   0.83032  -0.14698      33  -0.17486   0.83032  -0.14698



                                            ****************************
                                            *  Fragment Type : ligand  *
                                            ****************************
  

 Fragment no.    2   (in the list of all fragments)
 -----------------
 The local coordinate frame is identical to the molecular frame.

 Check Atomic Coordinates:

                  Master (on file)          After Computed Tranformation               As specified on Input
           ----------------------------     ----------------------------     ---------------------------------
     1)    -4.80234  -0.30230  -1.14905     -4.80234  -0.30230  -1.14905      53  -4.80234  -0.30230  -1.14905
     2)     2.74383   0.27304  -2.00005      2.74383   0.27304  -2.00005      54   2.74383   0.27304  -2.00005
     3)     3.95278  -0.03576  -1.36917      3.95278  -0.03576  -1.36917      55   3.95278  -0.03576  -1.36917
     4)     5.10543   0.70595  -1.60193      5.10543   0.70595  -1.60193      56   5.10543   0.70595  -1.60193
     5)     5.06311   1.81405  -2.44359      5.06311   1.81405  -2.44359      57   5.06311   1.81405  -2.44359
     6)     3.86934   2.15716  -3.07362      3.86934   2.15716  -3.07362      58   3.86934   2.15716  -3.07362
     7)     2.73291   1.39600  -2.83176      2.73291   1.39600  -2.83176      59   2.73291   1.39600  -2.83176
     8)     1.53608  -2.12035  -0.89555      1.53608  -2.12035  -0.89555      60   1.53608  -2.12035  -0.89555
     9)     1.25843  -2.49246   0.42187      1.25843  -2.49246   0.42187      61   1.25843  -2.49246   0.42187
    10)     1.42357  -3.80505   0.85938      1.42357  -3.80505   0.85938      62   1.42357  -3.80505   0.85938
    11)     1.90919  -4.77204  -0.01591      1.90919  -4.77204  -0.01591      63   1.90919  -4.77204  -0.01591
    12)     2.22799  -4.42207  -1.32859      2.22799  -4.42207  -1.32859      64   2.22799  -4.42207  -1.32859
    13)     2.05763  -3.10522  -1.74004      2.05763  -3.10522  -1.74004      65   2.05763  -3.10522  -1.74004
    14)    -1.23825  -0.32617  -3.02768     -1.23825  -0.32617  -3.02768      36  -1.23825  -0.32617  -3.02768
    15)     0.20276  -0.83988  -3.08618      0.20276  -0.83988  -3.08618      39   0.20276  -0.83988  -3.08618
    16)    -2.02866  -1.97395  -0.68871     -2.02866  -1.97395  -0.68871      42  -2.02866  -1.97395  -0.68871
    17)    -2.14454  -2.12392   0.69884     -2.14454  -2.12392   0.69884      43  -2.14454  -2.12392   0.69884
    18)    -1.94314  -3.33926   1.34021     -1.94314  -3.33926   1.34021      44  -1.94314  -3.33926   1.34021
    19)    -1.62577  -4.46137   0.57530     -1.62577  -4.46137   0.57530      45  -1.62577  -4.46137   0.57530
    20)    -1.53597  -4.35655  -0.80979     -1.53597  -4.35655  -0.80979      46  -1.53597  -4.35655  -0.80979
    21)    -1.77363  -3.13114  -1.42767     -1.77363  -3.13114  -1.42767      47  -1.77363  -3.13114  -1.42767
    22)    -3.63158   0.34991  -1.54751     -3.63158   0.34991  -1.54751      48  -3.63158   0.34991  -1.54751
    23)    -3.75971   1.66471  -2.01569     -3.75971   1.66471  -2.01569      49  -3.75971   1.66471  -2.01569
    24)    -4.98745   2.30616  -2.10637     -4.98745   2.30616  -2.10637      50  -4.98745   2.30616  -2.10637
    25)    -6.13611   1.63104  -1.69664     -6.13611   1.63104  -1.69664      51  -6.13611   1.63104  -1.69664
    26)    -6.04349   0.32668  -1.21706     -6.04349   0.32668  -1.21706      52  -6.04349   0.32668  -1.21706
    27)    -2.67237   2.33674  -2.37137     -2.67237   2.33674  -2.37137      66  -2.67237   2.33674  -2.37137
    28)    -5.07115   3.54191  -2.55079     -5.07115   3.54191  -2.55079      67  -5.07115   3.54191  -2.55079
    29)    -7.30716   2.22600  -1.76130     -7.30716   2.22600  -1.76130      68  -7.30716   2.22600  -1.76130
    30)    -7.13299  -0.31250  -0.83708     -7.13299  -0.31250  -0.83708      69  -7.13299  -0.31250  -0.83708
    31)    -4.77757  -1.54632  -0.69214     -4.77757  -1.54632  -0.69214      70  -4.77757  -1.54632  -0.69214
    32)    -2.41725  -1.06922   1.45168     -2.41725  -1.06922   1.45168      71  -2.41725  -1.06922   1.45168
    33)    -2.02347  -3.43240   2.64997     -2.02347  -3.43240   2.64997      72  -2.02347  -3.43240   2.64997
    34)    -1.38011  -5.61214   1.16058     -1.38011  -5.61214   1.16058      73  -1.38011  -5.61214   1.16058
    35)    -1.22030  -5.41815  -1.52888     -1.22030  -5.41815  -1.52888      74  -1.22030  -5.41815  -1.52888
    36)    -1.70943  -3.10728  -2.75333     -1.70943  -3.10728  -2.75333      75  -1.70943  -3.10728  -2.75333
    37)     1.58911   1.78512  -3.38788      1.58911   1.78512  -3.38788      76   1.58911   1.78512  -3.38788
    38)     4.03975  -1.04024  -0.50921      4.03975  -1.04024  -0.50921      77   4.03975  -1.04024  -0.50921
    39)     6.23259   0.39205  -0.98608      6.23259   0.39205  -0.98608      78   6.23259   0.39205  -0.98608
    40)     6.14484   2.53588  -2.63292      6.14484   2.53588  -2.63292      79   6.14484   2.53588  -2.63292
    41)     3.80879   3.22787  -3.84142      3.80879   3.22787  -3.84142      80   3.80879   3.22787  -3.84142
    42)     0.79453  -1.62649   1.30658      0.79453  -1.62649   1.30658      81   0.79453  -1.62649   1.30658
    43)     1.09866  -4.13657   2.09403      1.09866  -4.13657   2.09403      82   1.09866  -4.13657   2.09403
    44)     2.05733  -6.01247   0.38875      2.05733  -6.01247   0.38875      83   2.05733  -6.01247   0.38875
    45)     2.70318  -5.33155  -2.15518      2.70318  -5.33155  -2.15518      84   2.70318  -5.33155  -2.15518
    46)     2.39463  -2.79637  -2.98429      2.39463  -2.79637  -2.98429      85   2.39463  -2.79637  -2.98429
    47)     1.14138  -0.44124  -1.51834      1.14138  -0.44124  -1.51834      34   1.14138  -0.44124  -1.51834
    48)    -1.92421  -0.25123  -1.30626     -1.92421  -0.25123  -1.30626      35  -1.92421  -0.25123  -1.30626
    49)    -1.88899  -0.90004  -3.70016     -1.88899  -0.90004  -3.70016      37  -1.88899  -0.90004  -3.70016
    50)    -1.27543   0.73065  -3.33318     -1.27543   0.73065  -3.33318      38  -1.27543   0.73065  -3.33318
    51)     0.73174  -0.39106  -3.93636      0.73174  -0.39106  -3.93636      40   0.73174  -0.39106  -3.93636
    52)     0.21879  -1.92508  -3.23493      0.21879  -1.92508  -3.23493      41   0.21879  -1.92508  -3.23493

 Total nr. of (C)SFOs (summation over all irreps) :  1538

 Specify PRINT SFO in the input file to get a full list

 Nr. of SFOs for ir.rep.           A :  1538



 ================================
 (Slater-type)  F U N C T I O N S  ***  (Basis and Fit)  ***
 ================================
  

 Atom Type    1  (C)
 ==============

 Valence Basis Sets:   9
 -----------------------
   1 S    7.680000
   1 S    5.000000
   2 S    1.280000
   2 S    2.100000
   2 S    4.600000
   2 P    0.820000
   2 P    1.480000
   2 P    2.940000
   3 D    2.200000

 Charge Fitting Sets (for the computation of the Coulomb Potential):  22
 -----------------------------------------------------------------------
   1 S   15.360000
   2 S   17.530000
   2 S   12.070000
   2 S    8.310000
   2 S    5.730000
   3 S    5.780000
   3 S    4.220000
   3 S    3.080000
   3 S    2.250000
   3 S    1.640000
   2 P    9.880000
   2 P    5.800000
   3 P    5.050000
   3 P    3.230000
   3 P    2.060000
   3 D    7.200000
   3 D    4.400000
   3 D    2.690000
   3 D    1.640000
   4 F    5.400000
   4 F    3.550000
   5 G    4.500000

 Atom Type    2  (H)
 ==============

 Valence Basis Sets:   4
 -----------------------
   1 S    0.690000
   1 S    0.920000
   1 S    1.580000
   2 P    1.250000

 Charge Fitting Sets (for the computation of the Coulomb Potential):  11
 -----------------------------------------------------------------------
   1 S    3.160000
   1 S    2.090000
   1 S    1.380000
   2 S    1.500000
   2 P    4.000000
   2 P    2.650000
   2 P    1.750000
   3 D    4.000000
   3 D    2.500000
   4 F    3.000000
   5 G    4.000000

 Atom Type    3  (N)
 ==============

 Valence Basis Sets:   9
 -----------------------
   1 S    8.740000
   1 S    5.900000
   2 S    5.150000
   2 S    2.500000
   2 S    1.500000
   2 P    3.680000
   2 P    1.880000
   2 P    1.000000
   3 D    2.200000

 Charge Fitting Sets (for the computation of the Coulomb Potential):  22
 -----------------------------------------------------------------------
   1 S   17.480000
   2 S   20.150000
   2 S   13.990000
   2 S    9.710000
   2 S    6.740000
   3 S    6.860000
   3 S    5.040000
   3 S    3.700000
   3 S    2.720000
   3 S    2.000000
   2 P   11.320000
   2 P    6.730000
   3 P    5.920000
   3 P    3.820000
   3 P    2.460000
   3 D    8.100000
   3 D    5.080000
   3 D    3.190000
   3 D    2.000000
   4 F    5.800000
   4 F    3.600000
   5 G    4.500000

 Atom Type    4  (S)
 ==============

 Valence Basis Sets:  13
 -----------------------
   1 S   19.400000
   1 S   14.350000
   2 S    5.900000
   2 S    4.250000
   2 P    8.050000
   2 P    4.550000
   3 S    3.450000
   3 S    2.250000
   3 S    1.500000
   3 P    2.650000
   3 P    1.600000
   3 P    1.000000
   3 D    2.100000

 Charge Fitting Sets (for the computation of the Coulomb Potential):  30
 -----------------------------------------------------------------------
   1 S   38.800000
   1 S   23.350000
   2 S   26.020000
   2 S   17.570000
   3 S   17.420000
   3 S   12.500000
   3 S    8.980000
   4 S    8.520000
   4 S    6.360000
   4 S    4.750000
   5 S    4.420000
   5 S    3.390000
   5 S    2.600000
   5 S    2.000000
   2 P   27.450000
   3 P   20.250000
   4 P   14.920000
   4 P    8.780000
   5 P    6.520000
   5 P    4.040000
   5 P    2.500000
   3 D   20.900000
   4 D   14.560000
   4 D    8.130000
   5 D    5.740000
   5 D    3.390000
   5 D    2.000000
   4 F    5.000000
   4 F    3.000000
   5 G    3.620000

 Atom Type    5  (O)
 ==============

 Valence Basis Sets:   9
 -----------------------
   1 S    9.800000
   1 S    6.800000
   2 S    7.580000
   2 S    2.880000
   2 S    1.720000
   2 P    4.080000
   2 P    2.080000
   2 P    1.120000
   3 D    2.000000

 Charge Fitting Sets (for the computation of the Coulomb Potential):  22
 -----------------------------------------------------------------------
   1 S   19.600000
   2 S   22.600000
   2 S   15.680000
   2 S   10.890000
   2 S    7.560000
   3 S    7.690000
   3 S    5.650000
   3 S    4.150000
   3 S    3.050000
   3 S    2.240000
   2 P   12.860000
   2 P    7.680000
   3 P    6.780000
   3 P    4.390000
   3 P    2.840000
   3 D    8.800000
   3 D    5.580000
   3 D    3.530000
   3 D    2.240000
   4 F    6.200000
   4 F    3.700000
   5 G    4.500000

 Atom Type    6  (Cl)
 ==============

 Valence Basis Sets:  13
 -----------------------
   1 S   20.300000
   1 S   15.250000
   2 S    6.250000
   2 S    4.450000
   2 P    8.850000
   2 P    5.050000
   3 S    3.450000
   3 S    2.300000
   3 S    1.600000
   3 P    3.350000
   3 P    2.050000
   3 P    1.200000
   3 D    2.000000

 Charge Fitting Sets (for the computation of the Coulomb Potential):  30
 -----------------------------------------------------------------------
   1 S   40.600000
   1 S   24.830000
   2 S   28.080000
   2 S   19.200000
   3 S   19.250000
   3 S   13.970000
   3 S   10.130000
   4 S    9.710000
   4 S    7.320000
   4 S    5.510000
   5 S    5.170000
   5 S    4.000000
   5 S    3.100000
   5 S    2.400000
   2 P   29.150000
   3 P   21.740000
   4 P   16.160000
   4 P    9.600000
   5 P    7.180000
   5 P    4.480000
   5 P    2.800000
   3 D   21.950000
   4 D   15.750000
   4 D    9.040000
   5 D    6.550000
   5 D    3.960000
   5 D    2.400000
   4 F    5.000000
   4 F    3.000000
   5 G    3.500000

 Atom Type    7  (F)
 ==============

 Valence Basis Sets:   9
 -----------------------
   1 S   10.880000
   1 S    7.700000
   2 S    3.240000
   2 S    1.940000
   2 S    0.740000
   2 P    4.540000
   2 P    2.300000
   2 P    1.240000
   3 D    2.000000

 Charge Fitting Sets (for the computation of the Coulomb Potential):  23
 -----------------------------------------------------------------------
   1 S   21.760000
   2 S   24.390000
   2 S   16.560000
   2 S   11.240000
   2 S    7.630000
   3 S    7.600000
   3 S    5.480000
   3 S    3.950000
   3 S    2.850000
   3 S    2.050000
   3 S    1.480000
   2 P   14.400000
   2 P    7.530000
   3 P    5.900000
   3 P    3.420000
   3 P    1.980000
   3 D    9.700000
   3 D    6.160000
   3 D    3.910000
   3 D    2.480000
   4 F    6.500000
   4 F    3.750000
   5 G    4.500000

 Atom Type    8  (Pd)
 ==============

 Valence Basis Sets:  26
 -----------------------
   1 S  306.000000
   1 S   76.400000
   1 S   45.900000
   2 S   53.800000
   2 S   19.550000
   3 S   10.150000
   3 S    6.650000
   4 S    6.150000
   4 S    3.900000
   5 S    2.500000
   5 S    1.450000
   5 S    0.850000
   2 P   29.100000
   2 P   18.750000
   3 P   11.250000
   3 P    8.100000
   4 P    5.950000
   4 P    3.950000
   4 P    2.700000
   3 D   17.550000
   3 D   10.450000
   3 D    6.900000
   4 D    4.250000
   4 D    2.200000
   4 D    1.100000
   5 P    1.450000

 Charge Fitting Sets (for the computation of the Coulomb Potential):  58
 -----------------------------------------------------------------------
   1 S  612.000000
   1 S  446.101000
   1 S  325.174000
   1 S  237.027000
   1 S  172.774000
   1 S  125.939000
   1 S   91.800000
   1 S   53.670000
   2 S   58.190000
   2 S   38.430000
   3 S   37.300000
   3 S   26.280000
   4 S   24.500000
   4 S   18.000000
   5 S   16.470000
   5 S   12.460000
   6 S   11.300000
   6 S    8.740000
   7 S    7.890000
   7 S    6.210000
   8 S    5.590000
   8 S    4.470000
   8 S    3.570000
   9 S    3.210000
   9 S    2.600000
   9 S    2.100000
   9 S    1.700000
   2 P   64.650000
   3 P   49.410000
   4 P   37.530000
   5 P   28.620000
   6 P   21.980000
   6 P   14.500000
   7 P   11.220000
   7 P    7.620000
   8 P    5.940000
   8 P    4.130000
   9 P    3.240000
   9 P    2.300000
   3 D   56.350000
   4 D   37.260000
   5 D   25.120000
   6 D   17.230000
   6 D   10.190000
   7 D    7.110000
   7 D    4.360000
   8 D    3.090000
   8 D    1.950000
   4 F   47.900000
   5 F   28.270000
   6 F   17.190000
   6 F    9.040000
   7 F    5.640000
   7 F    3.100000
   5 G   20.900000
   6 G    9.980000
   7 G    4.980000
   7 G    2.200000

 Atom Type    9  (C)
 ==============

 Valence Basis Sets:   9
 -----------------------
   1 S    7.680000
   1 S    5.000000
   2 S    1.280000
   2 S    2.100000
   2 S    4.600000
   2 P    0.820000
   2 P    1.480000
   2 P    2.940000
   3 D    2.200000

 Charge Fitting Sets (for the computation of the Coulomb Potential):  22
 -----------------------------------------------------------------------
   1 S   15.360000
   2 S   17.530000
   2 S   12.070000
   2 S    8.310000
   2 S    5.730000
   3 S    5.780000
   3 S    4.220000
   3 S    3.080000
   3 S    2.250000
   3 S    1.640000
   2 P    9.880000
   2 P    5.800000
   3 P    5.050000
   3 P    3.230000
   3 P    2.060000
   3 D    7.200000
   3 D    4.400000
   3 D    2.690000
   3 D    1.640000
   4 F    5.400000
   4 F    3.550000
   5 G    4.500000

 Atom Type   10  (F)
 ==============

 Valence Basis Sets:   9
 -----------------------
   1 S   10.880000
   1 S    7.700000
   2 S    3.240000
   2 S    1.940000
   2 S    0.740000
   2 P    4.540000
   2 P    2.300000
   2 P    1.240000
   3 D    2.000000

 Charge Fitting Sets (for the computation of the Coulomb Potential):  23
 -----------------------------------------------------------------------
   1 S   21.760000
   2 S   24.390000
   2 S   16.560000
   2 S   11.240000
   2 S    7.630000
   3 S    7.600000
   3 S    5.480000
   3 S    3.950000
   3 S    2.850000
   3 S    2.050000
   3 S    1.480000
   2 P   14.400000
   2 P    7.530000
   3 P    5.900000
   3 P    3.420000
   3 P    1.980000
   3 D    9.700000
   3 D    6.160000
   3 D    3.910000
   3 D    2.480000
   4 F    6.500000
   4 F    3.750000
   5 G    4.500000

 Atom Type   11  (P)
 ==============

 Valence Basis Sets:  13
 -----------------------
   1 S   18.000000
   1 S   13.350000
   2 S    5.600000
   2 S    4.050000
   2 P    7.450000
   2 P    4.100000
   3 S    2.700000
   3 S    1.850000
   3 S    1.300000
   3 P    2.300000
   3 P    1.350000
   3 P    0.850000
   3 D    1.900000

 Charge Fitting Sets (for the computation of the Coulomb Potential):  30
 -----------------------------------------------------------------------
   1 S   36.000000
   1 S   21.450000
   2 S   23.670000
   2 S   15.860000
   3 S   15.600000
   3 S   11.130000
   3 S    7.940000
   4 S    7.490000
   4 S    5.560000
   4 S    4.130000
   5 S    3.810000
   5 S    2.910000
   5 S    2.230000
   5 S    1.700000
   2 P   25.450000
   3 P   18.490000
   4 P   13.440000
   4 P    7.810000
   5 P    5.730000
   5 P    3.510000
   5 P    2.150000
   3 D   19.350000
   4 D   13.230000
   4 D    7.250000
   5 D    5.040000
   5 D    2.930000
   5 D    1.700000
   4 F    5.000000
   4 F    3.000000
   5 G    3.750000

 Atom Type   12  (H)
 ==============

 Valence Basis Sets:   4
 -----------------------
   1 S    0.690000
   1 S    0.920000
   1 S    1.580000
   2 P    1.250000

 Charge Fitting Sets (for the computation of the Coulomb Potential):  11
 -----------------------------------------------------------------------
   1 S    3.160000
   1 S    2.090000
   1 S    1.380000
   2 S    1.500000
   2 P    4.000000
   2 P    2.650000
   2 P    1.750000
   3 D    4.000000
   3 D    2.500000
   4 F    3.000000
   5 G    4.000000


 BAS: List of all Elementary Cartesian Basis Functions
 =====================================================

 The numbering in the list below (to the right of the function characteristics) is referred
 to in print-outs of MO eigenvectors and Mulliken populations in the BAS representation
 (as contrasted to the SFO representation).

 Notes:
 1. The functions are characterized by a polynomial prefactor (powers of x,y,z and r) and
    an exponential decay factor alpha.
 2. Since the basis sets are specific for an atom TYPE, the individual functions occur on
    all atoms of that type.
 3. The word 'Core' in the left margin signals that it is a Core Function (CF) : not a
    degree of freedom in the valence set, but only used to ensure orthogonalization of
    the other valence basis functions on the frozen Core Orbitals.


 (power of) X  Y  Z  R     Alpha  on Atom
            ==========     =====     ==========

 C                                    1    2    3    4    5    6    7    8    9   10   11   12   13   14
                                  ---------------------------------------------------------------------------
            0  0  0  0     7.680      1   21   41   61   81  101  121  141  161  181  201  221  241  261
            0  0  0  0     5.000      2   22   42   62   82  102  122  142  162  182  202  222  242  262
            0  0  0  1     1.280      3   23   43   63   83  103  123  143  163  183  203  223  243  263
            0  0  0  1     2.100      4   24   44   64   84  104  124  144  164  184  204  224  244  264
            0  0  0  1     4.600      5   25   45   65   85  105  125  145  165  185  205  225  245  265
            1  0  0  0     0.820      6   26   46   66   86  106  126  146  166  186  206  226  246  266
            0  1  0  0     0.820      7   27   47   67   87  107  127  147  167  187  207  227  247  267
            0  0  1  0     0.820      8   28   48   68   88  108  128  148  168  188  208  228  248  268
            1  0  0  0     1.480      9   29   49   69   89  109  129  149  169  189  209  229  249  269
            0  1  0  0     1.480     10   30   50   70   90  110  130  150  170  190  210  230  250  270
            0  0  1  0     1.480     11   31   51   71   91  111  131  151  171  191  211  231  251  271
            1  0  0  0     2.940     12   32   52   72   92  112  132  152  172  192  212  232  252  272
            0  1  0  0     2.940     13   33   53   73   93  113  133  153  173  193  213  233  253  273
            0  0  1  0     2.940     14   34   54   74   94  114  134  154  174  194  214  234  254  274
            2  0  0  0     2.200     15   35   55   75   95  115  135  155  175  195  215  235  255  275
            1  1  0  0     2.200     16   36   56   76   96  116  136  156  176  196  216  236  256  276
            1  0  1  0     2.200     17   37   57   77   97  117  137  157  177  197  217  237  257  277
            0  2  0  0     2.200     18   38   58   78   98  118  138  158  178  198  218  238  258  278
            0  1  1  0     2.200     19   39   59   79   99  119  139  159  179  199  219  239  259  279
            0  0  2  0     2.200     20   40   60   80  100  120  140  160  180  200  220  240  260  280

 H                                   15   16   17   18   19   20   21   22
                                  ---------------------------------------------------------------------------
            0  0  0  0     0.690    281  287  293  299  305  311  317  323
            0  0  0  0     0.920    282  288  294  300  306  312  318  324
            0  0  0  0     1.580    283  289  295  301  307  313  319  325
            1  0  0  0     1.250    284  290  296  302  308  314  320  326
            0  1  0  0     1.250    285  291  297  303  309  315  321  327
            0  0  1  0     1.250    286  292  298  304  310  316  322  328

 N                                   23
                                  ---------------------------------------------------------------------------
            0  0  0  0     8.740    329
            0  0  0  0     5.900    330
            0  0  0  1     5.150    331
            0  0  0  1     2.500    332
            0  0  0  1     1.500    333
            1  0  0  0     3.680    334
            0  1  0  0     3.680    335
            0  0  1  0     3.680    336
            1  0  0  0     1.880    337
            0  1  0  0     1.880    338
            0  0  1  0     1.880    339
            1  0  0  0     1.000    340
            0  1  0  0     1.000    341
            0  0  1  0     1.000    342
            2  0  0  0     2.200    343
            1  1  0  0     2.200    344
            1  0  1  0     2.200    345
            0  2  0  0     2.200    346
            0  1  1  0     2.200    347
            0  0  2  0     2.200    348

 S                                   24
                                  ---------------------------------------------------------------------------
            0  0  0  0    19.400    349
            0  0  0  0    14.350    350
            0  0  0  1     5.900    351
            0  0  0  1     4.250    352
            1  0  0  0     8.050    353
            0  1  0  0     8.050    354
            0  0  1  0     8.050    355
            1  0  0  0     4.550    356
            0  1  0  0     4.550    357
            0  0  1  0     4.550    358
            0  0  0  2     3.450    359
            0  0  0  2     2.250    360
            0  0  0  2     1.500    361
            1  0  0  1     2.650    362
            0  1  0  1     2.650    363
            0  0  1  1     2.650    364
            1  0  0  1     1.600    365
            0  1  0  1     1.600    366
            0  0  1  1     1.600    367
            1  0  0  1     1.000    368
            0  1  0  1     1.000    369
            0  0  1  1     1.000    370
            2  0  0  0     2.100    371
            1  1  0  0     2.100    372
            1  0  1  0     2.100    373
            0  2  0  0     2.100    374
            0  1  1  0     2.100    375
            0  0  2  0     2.100    376

 O                                   25   26   27
                                  ---------------------------------------------------------------------------
            0  0  0  0     9.800    377  397  417
            0  0  0  0     6.800    378  398  418
            0  0  0  1     7.580    379  399  419
            0  0  0  1     2.880    380  400  420
            0  0  0  1     1.720    381  401  421
            1  0  0  0     4.080    382  402  422
            0  1  0  0     4.080    383  403  423
            0  0  1  0     4.080    384  404  424
            1  0  0  0     2.080    385  405  425
            0  1  0  0     2.080    386  406  426
            0  0  1  0     2.080    387  407  427
            1  0  0  0     1.120    388  408  428
            0  1  0  0     1.120    389  409  429
            0  0  1  0     1.120    390  410  430
            2  0  0  0     2.000    391  411  431
            1  1  0  0     2.000    392  412  432
            1  0  1  0     2.000    393  413  433
            0  2  0  0     2.000    394  414  434
            0  1  1  0     2.000    395  415  435
            0  0  2  0     2.000    396  416  436

 Cl                                  28
                                  ---------------------------------------------------------------------------
            0  0  0  0    20.300    437
            0  0  0  0    15.250    438
            0  0  0  1     6.250    439
            0  0  0  1     4.450    440
            1  0  0  0     8.850    441
            0  1  0  0     8.850    442
            0  0  1  0     8.850    443
            1  0  0  0     5.050    444
            0  1  0  0     5.050    445
            0  0  1  0     5.050    446
            0  0  0  2     3.450    447
            0  0  0  2     2.300    448
            0  0  0  2     1.600    449
            1  0  0  1     3.350    450
            0  1  0  1     3.350    451
            0  0  1  1     3.350    452
            1  0  0  1     2.050    453
            0  1  0  1     2.050    454
            0  0  1  1     2.050    455
            1  0  0  1     1.200    456
            0  1  0  1     1.200    457
            0  0  1  1     1.200    458
            2  0  0  0     2.000    459
            1  1  0  0     2.000    460
            1  0  1  0     2.000    461
            0  2  0  0     2.000    462
            0  1  1  0     2.000    463
            0  0  2  0     2.000    464

 F                                   29   30   31   32
                                  ---------------------------------------------------------------------------
            0  0  0  0    10.880    465  485  505  525
            0  0  0  0     7.700    466  486  506  526
            0  0  0  1     3.240    467  487  507  527
            0  0  0  1     1.940    468  488  508  528
            0  0  0  1     0.740    469  489  509  529
            1  0  0  0     4.540    470  490  510  530
            0  1  0  0     4.540    471  491  511  531
            0  0  1  0     4.540    472  492  512  532
            1  0  0  0     2.300    473  493  513  533
            0  1  0  0     2.300    474  494  514  534
            0  0  1  0     2.300    475  495  515  535
            1  0  0  0     1.240    476  496  516  536
            0  1  0  0     1.240    477  497  517  537
            0  0  1  0     1.240    478  498  518  538
            2  0  0  0     2.000    479  499  519  539
            1  1  0  0     2.000    480  500  520  540
            1  0  1  0     2.000    481  501  521  541
            0  2  0  0     2.000    482  502  522  542
            0  1  1  0     2.000    483  503  523  543
            0  0  2  0     2.000    484  504  524  544

 Pd                                  33
                                  ---------------------------------------------------------------------------
            0  0  0  0   306.000    545
            0  0  0  0    76.400    546
            0  0  0  0    45.900    547
            0  0  0  1    53.800    548
            0  0  0  1    19.550    549
            0  0  0  2    10.150    550
            0  0  0  2     6.650    551
            0  0  0  3     6.150    552
            0  0  0  3     3.900    553
            0  0  0  4     2.500    554
            0  0  0  4     1.450    555
            0  0  0  4     0.850    556
            1  0  0  0    29.100    557
            0  1  0  0    29.100    558
            0  0  1  0    29.100    559
            1  0  0  0    18.750    560
            0  1  0  0    18.750    561
            0  0  1  0    18.750    562
            1  0  0  1    11.250    563
            0  1  0  1    11.250    564
            0  0  1  1    11.250    565
            1  0  0  1     8.100    566
            0  1  0  1     8.100    567
            0  0  1  1     8.100    568
            1  0  0  2     5.950    569
            0  1  0  2     5.950    570
            0  0  1  2     5.950    571
            1  0  0  2     3.950    572
            0  1  0  2     3.950    573
            0  0  1  2     3.950    574
            1  0  0  2     2.700    575
            0  1  0  2     2.700    576
            0  0  1  2     2.700    577
            2  0  0  0    17.550    578
            1  1  0  0    17.550    579
            1  0  1  0    17.550    580
            0  2  0  0    17.550    581
            0  1  1  0    17.550    582
            0  0  2  0    17.550    583
            2  0  0  0    10.450    584
            1  1  0  0    10.450    585
            1  0  1  0    10.450    586
            0  2  0  0    10.450    587
            0  1  1  0    10.450    588
            0  0  2  0    10.450    589
            2  0  0  0     6.900    590
            1  1  0  0     6.900    591
            1  0  1  0     6.900    592
            0  2  0  0     6.900    593
            0  1  1  0     6.900    594
            0  0  2  0     6.900    595
            2  0  0  1     4.250    596
            1  1  0  1     4.250    597
            1  0  1  1     4.250    598
            0  2  0  1     4.250    599
            0  1  1  1     4.250    600
            0  0  2  1     4.250    601
            2  0  0  1     2.200    602
            1  1  0  1     2.200    603
            1  0  1  1     2.200    604
            0  2  0  1     2.200    605
            0  1  1  1     2.200    606
            0  0  2  1     2.200    607
            2  0  0  1     1.100    608
            1  1  0  1     1.100    609
            1  0  1  1     1.100    610
            0  2  0  1     1.100    611
            0  1  1  1     1.100    612
            0  0  2  1     1.100    613
            1  0  0  3     1.450    614
            0  1  0  3     1.450    615
            0  0  1  3     1.450    616

 C                                   34   35   36   37   38   39   40   41   42   43   44   45   46   47   48
                                     49   50   51   52   53   54   55   56   57   58   59
                                  ---------------------------------------------------------------------------
            0  0  0  0     7.680    617  637  657  677  697  717  737  757  777  797  817  837  857  877  897
                                    917  937  957  977  997 1017 1037 1057 1077 1097 1117
            0  0  0  0     5.000    618  638  658  678  698  718  738  758  778  798  818  838  858  878  898
                                    918  938  958  978  998 1018 1038 1058 1078 1098 1118
            0  0  0  1     1.280    619  639  659  679  699  719  739  759  779  799  819  839  859  879  899
                                    919  939  959  979  999 1019 1039 1059 1079 1099 1119
            0  0  0  1     2.100    620  640  660  680  700  720  740  760  780  800  820  840  860  880  900
                                    920  940  960  980 1000 1020 1040 1060 1080 1100 1120
            0  0  0  1     4.600    621  641  661  681  701  721  741  761  781  801  821  841  861  881  901
                                    921  941  961  981 1001 1021 1041 1061 1081 1101 1121
            1  0  0  0     0.820    622  642  662  682  702  722  742  762  782  802  822  842  862  882  902
                                    922  942  962  982 1002 1022 1042 1062 1082 1102 1122
            0  1  0  0     0.820    623  643  663  683  703  723  743  763  783  803  823  843  863  883  903
                                    923  943  963  983 1003 1023 1043 1063 1083 1103 1123
            0  0  1  0     0.820    624  644  664  684  704  724  744  764  784  804  824  844  864  884  904
                                    924  944  964  984 1004 1024 1044 1064 1084 1104 1124
            1  0  0  0     1.480    625  645  665  685  705  725  745  765  785  805  825  845  865  885  905
                                    925  945  965  985 1005 1025 1045 1065 1085 1105 1125
            0  1  0  0     1.480    626  646  666  686  706  726  746  766  786  806  826  846  866  886  906
                                    926  946  966  986 1006 1026 1046 1066 1086 1106 1126
            0  0  1  0     1.480    627  647  667  687  707  727  747  767  787  807  827  847  867  887  907
                                    927  947  967  987 1007 1027 1047 1067 1087 1107 1127
            1  0  0  0     2.940    628  648  668  688  708  728  748  768  788  808  828  848  868  888  908
                                    928  948  968  988 1008 1028 1048 1068 1088 1108 1128
            0  1  0  0     2.940    629  649  669  689  709  729  749  769  789  809  829  849  869  889  909
                                    929  949  969  989 1009 1029 1049 1069 1089 1109 1129
            0  0  1  0     2.940    630  650  670  690  710  730  750  770  790  810  830  850  870  890  910
                                    930  950  970  990 1010 1030 1050 1070 1090 1110 1130
            2  0  0  0     2.200    631  651  671  691  711  731  751  771  791  811  831  851  871  891  911
                                    931  951  971  991 1011 1031 1051 1071 1091 1111 1131
            1  1  0  0     2.200    632  652  672  692  712  732  752  772  792  812  832  852  872  892  912
                                    932  952  972  992 1012 1032 1052 1072 1092 1112 1132
            1  0  1  0     2.200    633  653  673  693  713  733  753  773  793  813  833  853  873  893  913
                                    933  953  973  993 1013 1033 1053 1073 1093 1113 1133
            0  2  0  0     2.200    634  654  674  694  714  734  754  774  794  814  834  854  874  894  914
                                    934  954  974  994 1014 1034 1054 1074 1094 1114 1134
            0  1  1  0     2.200    635  655  675  695  715  735  755  775  795  815  835  855  875  895  915
                                    935  955  975  995 1015 1035 1055 1075 1095 1115 1135
            0  0  2  0     2.200    636  656  676  696  716  736  756  776  796  816  836  856  876  896  916
                                    936  956  976  996 1016 1036 1056 1076 1096 1116 1136

 F                                   60   61   62   63   64   65   66   67   68   69   70   71   72   73   74
                                     75   76   77   78   79
                                  ---------------------------------------------------------------------------
            0  0  0  0    10.880   1137 1157 1177 1197 1217 1237 1257 1277 1297 1317 1337 1357 1377 1397 1417
                                   1437 1457 1477 1497 1517
            0  0  0  0     7.700   1138 1158 1178 1198 1218 1238 1258 1278 1298 1318 1338 1358 1378 1398 1418
                                   1438 1458 1478 1498 1518
            0  0  0  1     3.240   1139 1159 1179 1199 1219 1239 1259 1279 1299 1319 1339 1359 1379 1399 1419
                                   1439 1459 1479 1499 1519
            0  0  0  1     1.940   1140 1160 1180 1200 1220 1240 1260 1280 1300 1320 1340 1360 1380 1400 1420
                                   1440 1460 1480 1500 1520
            0  0  0  1     0.740   1141 1161 1181 1201 1221 1241 1261 1281 1301 1321 1341 1361 1381 1401 1421
                                   1441 1461 1481 1501 1521
            1  0  0  0     4.540   1142 1162 1182 1202 1222 1242 1262 1282 1302 1322 1342 1362 1382 1402 1422
                                   1442 1462 1482 1502 1522
            0  1  0  0     4.540   1143 1163 1183 1203 1223 1243 1263 1283 1303 1323 1343 1363 1383 1403 1423
                                   1443 1463 1483 1503 1523
            0  0  1  0     4.540   1144 1164 1184 1204 1224 1244 1264 1284 1304 1324 1344 1364 1384 1404 1424
                                   1444 1464 1484 1504 1524
            1  0  0  0     2.300   1145 1165 1185 1205 1225 1245 1265 1285 1305 1325 1345 1365 1385 1405 1425
                                   1445 1465 1485 1505 1525
            0  1  0  0     2.300   1146 1166 1186 1206 1226 1246 1266 1286 1306 1326 1346 1366 1386 1406 1426
                                   1446 1466 1486 1506 1526
            0  0  1  0     2.300   1147 1167 1187 1207 1227 1247 1267 1287 1307 1327 1347 1367 1387 1407 1427
                                   1447 1467 1487 1507 1527
            1  0  0  0     1.240   1148 1168 1188 1208 1228 1248 1268 1288 1308 1328 1348 1368 1388 1408 1428
                                   1448 1468 1488 1508 1528
            0  1  0  0     1.240   1149 1169 1189 1209 1229 1249 1269 1289 1309 1329 1349 1369 1389 1409 1429
                                   1449 1469 1489 1509 1529
            0  0  1  0     1.240   1150 1170 1190 1210 1230 1250 1270 1290 1310 1330 1350 1370 1390 1410 1430
                                   1450 1470 1490 1510 1530
            2  0  0  0     2.000   1151 1171 1191 1211 1231 1251 1271 1291 1311 1331 1351 1371 1391 1411 1431
                                   1451 1471 1491 1511 1531
            1  1  0  0     2.000   1152 1172 1192 1212 1232 1252 1272 1292 1312 1332 1352 1372 1392 1412 1432
                                   1452 1472 1492 1512 1532
            1  0  1  0     2.000   1153 1173 1193 1213 1233 1253 1273 1293 1313 1333 1353 1373 1393 1413 1433
                                   1453 1473 1493 1513 1533
            0  2  0  0     2.000   1154 1174 1194 1214 1234 1254 1274 1294 1314 1334 1354 1374 1394 1414 1434
                                   1454 1474 1494 1514 1534
            0  1  1  0     2.000   1155 1175 1195 1215 1235 1255 1275 1295 1315 1335 1355 1375 1395 1415 1435
                                   1455 1475 1495 1515 1535
            0  0  2  0     2.000   1156 1176 1196 1216 1236 1256 1276 1296 1316 1336 1356 1376 1396 1416 1436
                                   1456 1476 1496 1516 1536

 P                                   80   81
                                  ---------------------------------------------------------------------------
            0  0  0  0    18.000   1537 1565
            0  0  0  0    13.350   1538 1566
            0  0  0  1     5.600   1539 1567
            0  0  0  1     4.050   1540 1568
            1  0  0  0     7.450   1541 1569
            0  1  0  0     7.450   1542 1570
            0  0  1  0     7.450   1543 1571
            1  0  0  0     4.100   1544 1572
            0  1  0  0     4.100   1545 1573
            0  0  1  0     4.100   1546 1574
            0  0  0  2     2.700   1547 1575
            0  0  0  2     1.850   1548 1576
            0  0  0  2     1.300   1549 1577
            1  0  0  1     2.300   1550 1578
            0  1  0  1     2.300   1551 1579
            0  0  1  1     2.300   1552 1580
            1  0  0  1     1.350   1553 1581
            0  1  0  1     1.350   1554 1582
            0  0  1  1     1.350   1555 1583
            1  0  0  1     0.850   1556 1584
            0  1  0  1     0.850   1557 1585
            0  0  1  1     0.850   1558 1586
            2  0  0  0     1.900   1559 1587
            1  1  0  0     1.900   1560 1588
            1  0  1  0     1.900   1561 1589
            0  2  0  0     1.900   1562 1590
            0  1  1  0     1.900   1563 1591
            0  0  2  0     1.900   1564 1592

 H                                   82   83   84   85
                                  ---------------------------------------------------------------------------
            0  0  0  0     0.690   1593 1599 1605 1611
            0  0  0  0     0.920   1594 1600 1606 1612
            0  0  0  0     1.580   1595 1601 1607 1613
            1  0  0  0     1.250   1596 1602 1608 1614
            0  1  0  0     1.250   1597 1603 1609 1615
            0  0  1  0     1.250   1598 1604 1610 1616

 Total number of charge fitting functions (nprimf)      6997
 Total number of Cartesian basis functions (naos)       1616
 Total number of Cartesian core functions  (ncos)          0

1
 ***************************************************************************************************



                                              ***********************
                                              *  T E C H N I C A L  *
                                              ***********************
  



 =============================================================
 P A R A L L E L I Z A T I O N  and  V E C T O R I Z A T I O N
 =============================================================
  
 Nr of parallel processes:                               16
 Maximum vector length in NumInt loops:                 128



 =====================
 S C F   U P D A T E S
 =====================
  
 Max. nr. of cycles:                               300
 Convergence criterion:                              0.0000010000
   secondary criterion:                              0.0010000000

 Mix parameter (when DIIS does not apply):           0.2000000000
 Mixed ADIIS+SDIIS will be used                  
    Max number of expansion vectors:                10
    Pure ADIIS when Max([F,P]) is above              0.1000000000
    Pure SDIIS when Max([F,P]) is below              0.0010000000
 Automatic ElectronSmearing (in case of problematic SCF convergence) disabled



 =================
 P R E C I S I O N  ***  (General: NumInt, NeglectFunctionTails, ...)  ***
 =================
  

 NumInt:           Target precision:                 8.0000000000
 -------           Initial precision:                8.0000000000
                   Min. precision (optimization):    8.0000000000

 Neglect Functions:          Basis functions:        0.1000000000E-09
 ------------------          Fit functions:          0.1000000000E-09



 ===========================
 L I N E A R   S C A L I N G
 ===========================
  

 Cut-off radii density fit:                        0.1000000000E-11
 Overlap cut-off criterion AO matrix elements:     0.1000000000E-09
 Cut-offs for Coulomb potential and fitted density:0.1000000000E-11
 Cut-off criterion for Coulomb multipole terms:    0.1000000000E-11
 Progressive Convergence parameter:                 0.000000000    
1
 ***************************************************************************************************



                                            ***************************
                                            *  C O M P U T A T I O N  *
[...]
     450        8.9168         0.000       
     449        8.8830         0.000       
     448        8.7853         0.000       
     447        8.6782         0.000       
     446        8.5879         0.000       
     445        8.5608         0.000       
     444        8.4081         0.000       
     443        8.3774         0.000       
     442        8.3190         0.000       
     441        8.1894         0.000       
     440        8.1803         0.000       
     439        8.0406         0.000       
     438        7.9963         0.000       
     437        7.9014         0.000       
     436        7.8524         0.000       
     435        7.8012         0.000       
     434        7.6645         0.000       
     433        7.6190         0.000       
     432        7.6012         0.000       
     431        7.4664         0.000       
     430        7.3959         0.000       
     429        7.3114         0.000       
     428        7.2626         0.000       
     427        7.2458         0.000       
     426        7.1133         0.000       
     425        7.0541         0.000       
     424        7.0320         0.000       
     423        6.9954         0.000       
     422        6.8976         0.000       
     421        6.8493         0.000       
     420        6.7847         0.000       
     419        6.6979         0.000       
     418        6.6532         0.000       
     417        6.6411         0.000       
     416        6.6006         0.000       
     415        6.5337         0.000       
     414        6.5031         0.000       
     413        6.4503         0.000       
     412        6.4039         0.000       
     411        6.3561         0.000       
     410        6.3199         0.000       
     409        6.2525         0.000       
     408        6.2014         0.000       
     407        6.1557         0.000       
     406        6.0688         0.000       
     405        6.0457         0.000       
     404        6.0203         0.000       
     403        5.9875         0.000       
     402        5.9328         0.000       
     401        5.8547         0.000       
     400        5.7848         0.000       
     399        5.7067         0.000       
     398        5.5529         0.000       
     397        5.4974         0.000       
     396        5.3922         0.000       
     395        5.3573         0.000       
     394        5.2008         0.000       
     393        5.1067         0.000       
     392        5.0784         0.000       
     391        4.9669         0.000       
     390        4.8776         0.000       
     389        4.8709         0.000       
     388        4.7608         0.000       
     387        4.6953         0.000       
     386        4.6208         0.000       
     385        4.5486         0.000       
     384        4.3781         0.000       
     383        4.3190         0.000       
     382        4.2721         0.000       
     381        4.1941         0.000       
     380        4.0936         0.000       
     379        4.0299         0.000       
     378        3.9653         0.000       
     377        3.9451         0.000       
     376        3.8931         0.000       
     375        3.7797         0.000       
     374        3.7610         0.000       
     373        3.7473         0.000       
     372        3.5803         0.000       
     371        3.5409         0.000       
     370        3.5038         0.000       
     369        3.4325         0.000       
     368        3.3874         0.000       
     367        3.3043         0.000       
     366        3.2768         0.000       
     365        3.2708         0.000       
     364        3.2404         0.000       
     363        3.1418         0.000       
     362        3.0437         0.000       
     361        2.9645         0.000       
     360        2.9122         0.000       
     359        2.8175         0.000       
     358        2.7812         0.000       
     357        2.7282         0.000       
     356        2.6285         0.000       
     355        2.6206         0.000       
     354        2.5444         0.000       
     353        2.4922         0.000       
     352        2.4286         0.000       
     351        2.4112         0.000       
     350        2.2755         0.000       
     349        2.2430         0.000       
     348        2.2069         0.000       
     347        2.1171         0.000       
     346        2.0062         0.000       
     345        1.9684         0.000       
     344        1.8645         0.000       
     343        1.8067         0.000       
     342        1.7728         0.000       
     341        1.7006         0.000       
     340        1.6609         0.000       
     339        1.5655         0.000       
     338        1.5106         0.000       
     337        1.4343         0.000       
     336        1.2912         0.000       
     335        1.1969         0.000       
     334        1.1087         0.000       
     333        0.9899         0.000       
     332        0.9354         0.000       
     331        0.8608         0.000       
     330        0.7865         0.000       
     329        0.6554         0.000       
     328        0.6063         0.000       
     327        0.5202         0.000       
     326        0.4674         0.000       
     325        0.3637         0.000       
     324        0.2023         0.000       
     323        0.1221         0.000       
     322       -0.0957         0.000       
     321       -0.2745         0.000       
     320       -0.4431         0.000       
     319       -0.5091         0.000       
     318       -0.6460         0.000       
     317       -0.7577         0.000       
     316       -0.8795         0.000       
     315       -1.0358         0.000       
     314       -1.1120         0.000       
     313       -1.2898         0.000       
     312       -1.3031         0.000       
     311       -1.4142         0.000       
     310       -1.4481         0.000       
     309       -1.5828         0.000       
     308       -1.8773         0.000       
     307       -1.9202         0.000       
     306       -2.0997         0.000       
     305       -2.4393         0.000 < LUMO
     304       -5.3497         2.000 < HOMO
     303       -6.6722         2.000       
     302       -7.1224         2.000       
     301       -7.3297         2.000       
     300       -7.5417         2.000       
     299       -7.9025         2.000       
     298       -7.9948         2.000       
     297       -8.0405         2.000       
     296       -8.1822         2.000       
     295       -8.2221         2.000       
     294       -8.2746         2.000       
     293       -8.3015         2.000       
     292       -8.3920         2.000       
     291       -8.4058         2.000       
     290       -8.5688         2.000       
     289       -8.6563         2.000       
     288       -8.8258         2.000       
     287       -8.8830         2.000       
     286       -8.9560         2.000       
     285       -9.2292         2.000       
     284       -9.3750         2.000       
     283       -9.5674         2.000       
     282       -9.6899         2.000       
     281       -9.7641         2.000       
     280       -9.9083         2.000       
     279      -10.2679         2.000       
     278      -10.3855         2.000       
     277      -10.5491         2.000       
     276      -10.6032         2.000       
     275      -10.6505         2.000       
     274      -10.8811         2.000       
     273      -10.9883         2.000       
     272      -11.0220         2.000       
     271      -11.1526         2.000       
     270      -11.1934         2.000       
     269      -11.2927         2.000       
     268      -11.5093         2.000       
     267      -11.6255         2.000       
     266      -11.6390         2.000       
     265      -11.6658         2.000       
     264      -11.7357         2.000       
     263      -11.8163         2.000       
     262      -11.8951         2.000       
     261      -11.9144         2.000       
     260      -11.9791         2.000       
     259      -11.9998         2.000       
     258      -12.1565         2.000       
     257      -12.3581         2.000       
     256      -12.4443         2.000       
     255      -12.5996         2.000       
     254      -12.6332         2.000       
     253      -12.6478         2.000       
     252      -12.6644         2.000       
     251      -12.6835         2.000       
     250      -12.7257         2.000       
     249      -12.7599         2.000       
     248      -12.8584         2.000       
     247      -12.8851         2.000       
     246      -13.0154         2.000       
     245      -13.1188         2.000       
     244      -13.2664         2.000       
     243      -13.2768         2.000       
     242      -13.3374         2.000       
     241      -13.3593         2.000       
     240      -13.4761         2.000       
     239      -13.5225         2.000       
     238      -13.5299         2.000       
     237      -13.5544         2.000       
     236      -13.5900         2.000       
     235      -13.6312         2.000       
     234      -13.6866         2.000       
     233      -13.7142         2.000       
     232      -13.7537         2.000       
     231      -13.7845         2.000       
     230      -13.9127         2.000       
     229      -13.9757         2.000       
     228      -14.0034         2.000       
     227      -14.0278         2.000       
     226      -14.1023         2.000       
     225      -14.1560         2.000       
     224      -14.1852         2.000       
     223      -14.2051         2.000       
     222      -14.2425         2.000       
     221      -14.2672         2.000       
     220      -14.2787         2.000       
     219      -14.3583         2.000       
     218      -14.4496         2.000       
     217      -14.5631         2.000       
     216      -14.6887         2.000       
     215      -14.6982         2.000       
     214      -14.7406         2.000       
     213      -14.8448         2.000       
     212      -14.8997         2.000       
     211      -14.9667         2.000       
     210      -14.9925         2.000       
     209      -15.0826         2.000       
     208      -15.1772         2.000       
     207      -15.1898         2.000       
     206      -15.3763         2.000       
     205      -15.4395         2.000       
     204      -15.6011         2.000       
     203      -15.6188         2.000       
     202      -15.6674         2.000       
     201      -15.6865         2.000       
     200      -15.7081         2.000       
     199      -15.7652         2.000       
     198      -15.8524         2.000       
     197      -15.9435         2.000       
     196      -16.0987         2.000       
     195      -16.1400         2.000       
     194      -16.2057         2.000       
     193      -16.2624         2.000       
     192      -16.3099         2.000       
     191      -16.3170         2.000       
     190      -16.3565         2.000       
     189      -16.4169         2.000       
     188      -16.4237         2.000       
     187      -16.4798         2.000       
     186      -16.5562         2.000       
     185      -16.5881         2.000       
     184      -16.6775         2.000       
     183      -16.9872         2.000       
     182      -17.1656         2.000       
     181      -17.2836         2.000       
     180      -17.3230         2.000       
     179      -17.5034         2.000       
     178      -17.5285         2.000       
     177      -17.6217         2.000       
     176      -17.6729         2.000       
     175      -17.7237         2.000       
     174      -17.7465         2.000       
     173      -17.7942         2.000       
     172      -17.8534         2.000       
     171      -17.9116         2.000       
     170      -17.9818         2.000       
     169      -18.0988         2.000       
     168      -18.5456         2.000       
     167      -18.8399         2.000       
     166      -19.0386         2.000       
     165      -19.3269         2.000       
     164      -19.5586         2.000       
     163      -19.5612         2.000       
     162      -19.7963         2.000       
     161      -19.8349         2.000       
     160      -19.8472         2.000       
     159      -19.9087         2.000       
     158      -19.9836         2.000       
     157      -20.4792         2.000       
     156      -20.5761         2.000       
     155      -21.0182         2.000       
     154      -21.2572         2.000       
     153      -21.6035         2.000       
     152      -21.9348         2.000       
     151      -22.6946         2.000       
     150      -22.7165         2.000       
     149      -22.7804         2.000       
     148      -22.9017         2.000       
     147      -22.9599         2.000       
     146      -22.9896         2.000       
     145      -23.0044         2.000       
     144      -23.1008         2.000       
     143      -23.5975         2.000       
     142      -24.0918         2.000       
     141      -24.5560         2.000       
     140      -24.7944         2.000       
     139      -24.9411         2.000       
     138      -26.0750         2.000       
     137      -26.0952         2.000       
     136      -26.3162         2.000       
     135      -26.4139         2.000       
     134      -27.0171         2.000       
     133      -28.4550         2.000       
     132      -30.4390         2.000       
     131      -31.4467         2.000       
     130      -35.0478         2.000       
     129      -35.2440         2.000       
     128      -35.4718         2.000       
     127      -35.6670         2.000       
     126      -35.7172         2.000       
     125      -35.7223         2.000       
     124      -35.8402         2.000       
     123      -35.8418         2.000       
     122      -35.9730         2.000       
     121      -35.9841         2.000       
     120      -36.0784         2.000       
     119      -36.0984         2.000       
     118      -36.1077         2.000       
     117      -36.1193         2.000       
     116      -36.2390         2.000       
     115      -36.2393         2.000       
     114      -36.3516         2.000       
     113      -36.3774         2.000       
     112      -36.3810         2.000       
     111      -36.3934         2.000       
     110      -36.4777         2.000       
     109      -36.5169         2.000       
     108      -36.6525         2.000       
     107      -36.6931         2.000       
     106      -58.0862         2.000       
     105      -58.5909         2.000       
     104      -58.8707         2.000       
     103      -93.8860         2.000       
     102     -130.9610         2.000       
     101     -131.0291         2.000       
     100     -131.0630         2.000       
      99     -131.0965         2.000       
      98     -131.1145         2.000       
      97     -131.1445         2.000       
      96     -166.1914         2.000       
      95     -166.2013         2.000       
      94     -166.2475         2.000       
      93     -182.8510         2.000       
      92     -182.9048         2.000       
      91     -197.7490         2.000       
      90     -197.7600         2.000       
      89     -198.0419         2.000       
      88     -223.7599         2.000       
      87     -261.3949         2.000       
      86     -278.8691         2.000       
      85     -278.9343         2.000       
      84     -278.9543         2.000       
      83     -279.3125         2.000       
      82     -279.6237         2.000       
      81     -279.9859         2.000       
      80     -280.0883         2.000       
      79     -280.0985         2.000       
      78     -280.2686         2.000       
      77     -280.3696         2.000       
      76     -280.5705         2.000       
      75     -280.5756         2.000       
      74     -280.6415         2.000       
      73     -280.7630         2.000       
      72     -280.8144         2.000       
      71     -280.9867         2.000       
      70     -281.5352         2.000       
      69     -281.5521         2.000       
      68     -281.5730         2.000       
      67     -281.6296         2.000       
      66     -282.2337         2.000       
      65     -282.2472         2.000       
      64     -282.2757         2.000       
      63     -282.2982         2.000       
      62     -282.4277         2.000       
      61     -282.4412         2.000       
      60     -282.4449         2.000       
      59     -282.4462         2.000       
      58     -282.4629         2.000       
      57     -282.5185         2.000       
      56     -282.5241         2.000       
      55     -282.5347         2.000       
      54     -282.5580         2.000       
      53     -282.5682         2.000       
      52     -282.6829         2.000       
      51     -282.7074         2.000       
      50     -282.7194         2.000       
      49     -282.7637         2.000       
      48     -282.7718         2.000       
      47     -282.7800         2.000       
      46     -338.1377         2.000       
      45     -338.1517         2.000       
      44     -338.2232         2.000       
      43     -338.3037         2.000       
      42     -338.3140         2.000       
      41     -393.6102         2.000       
      40     -523.1430         2.000       
      39     -523.2013         2.000       
      38     -524.2422         2.000       
      37     -531.9887         2.000       
      36     -532.1521         2.000       
      35     -532.2628         2.000       
      34     -653.9692         2.000       
      33     -675.7187         2.000       
      32     -675.7281         2.000       
      31     -675.7574         2.000       
      30     -675.8287         2.000       
      29     -676.3131         2.000       
      28     -676.3474         2.000       
      27     -676.3583         2.000       
      26     -676.3778         2.000       
      25     -676.4199         2.000       
      24     -676.4245         2.000       
      23     -676.4462         2.000       
      22     -676.4559         2.000       
      21     -676.4689         2.000       
      20     -676.5139         2.000       
      19     -676.5426         2.000       
      18     -676.5911         2.000       
      17     -676.5965         2.000       
      16     -676.5991         2.000       
      15     -676.6592         2.000       
      14     -676.6734         2.000       
      13     -676.7144         2.000       
      12     -676.7325         2.000       
      11     -676.7513         2.000       
      10     -676.7769         2.000       
       9    -2108.9533         2.000       
       8    -2109.0150         2.000       
       7    -2435.5376         2.000       
       6    -2777.6217         2.000       
       5    -3190.1057         2.000       
       4    -3190.1790         2.000       
       3    -3190.2176         2.000       
       2    -3561.1159         2.000       
       1   -24224.2791         2.000       

AMS application finished. Exiting.
NORMAL TERMINATION
     Total cpu time:    4877.65
  Total system time:      47.66
 Total elapsed time:    4937.67
NORMAL TERMINATION
