

 Parallel Execution: Process Information
 ==============================================================================
 Rank   Node Name                              NodeID   MyNodeRank  NodeMaster
    0   eu-g5-012-4                               0          0          0
    1   eu-g5-012-4                               1          0          1
    2   eu-g5-012-4                               0          1         -1
    3   eu-g5-012-4                               1          1         -1
    4   eu-g5-012-4                               0          2         -1
    5   eu-g5-012-4                               1          2         -1
    6   eu-g5-012-4                               0          3         -1
    7   eu-g5-012-4                               1          3         -1
    8   eu-g5-012-4                               0          4         -1
    9   eu-g5-012-4                               1          4         -1
   10   eu-g5-012-4                               0          5         -1
   11   eu-g5-012-4                               1          5         -1
   12   eu-g5-012-4                               0          6         -1
   13   eu-g5-012-4                               1          6         -1
   14   eu-g5-012-4                               0          7         -1
   15   eu-g5-012-4                               1          7         -1
 ==============================================================================


May use up to 30549MB of RAM as shared memory on node 0
May use up to 30759MB of RAM as shared memory on node 1

 *******************************************************************************
 *                                                                             *
 *  --------------------------------                                           *
 *   Amsterdam Modeling Suite (AMS)              2023.101                      *
 *  --------------------------------                                           *
 *                                               r111868 2023-03-31            *
 *                                                                             *
 *                                                                             *
 *                              =================                              *
 *                              |               |                              *
 *                              |     A M S     |                              *
 *                              |               |                              *
 *                              =================                              *
 *                                                                             *
 *                                                                             *
 *   Online information and documentation:  https://www.scm.com/support/       *
 *   E-mail:  support@scm.com   info@scm.com                                   *
 *                                                                             *
 *   Scientific publications using AMS results must be properly referenced     *
 *   See the User Manuals (or the web site) for recommended citations          *
 *   The terms and conditions of the End User License Agreement apply to       *
 *   the use of AMS, https://www.scm.com/license-terms/                        *
 *                                                                             *
 ***********************  x86_64_linux_intel / openmpi  ************************
 
 Licensed to: D-CHAB / ETH site license / Zurich / Switzerland 2023-06-23 15:55:12
 SCM User ID: u7035
  
 AMS 2023.101  RunTime: May25-2024 09:19:12  ShM Nodes: 2  Procs: 16

 AMS jobname: ts_ptbu2np
 AMS jobid  : 418305975

 Start   directory: /cluster/scratch/sroediger/michael/eda/
 Results directory: /cluster/scratch/sroediger/michael/eda/ts_ptbu2np.results/
 Scratch directory: /scratch/amstmp_ts_ptbu2np_kid0.418305975/


 Communication costs MPI_COMM_WORLD:      6.998 usec per message,   0.0166 usec per 8-byte item
 Communication costs for intra-node:      3.461 usec per message,   0.0129 usec per 8-byte item

 RNG seed: -2025527208 1477489621 -1603877498 328442986 2055299505 -938106962 -339678793 -538564002



                     *************************************************************************
                     *  ADF 2023.101  RunTime: May25-2024 09:19:13  ShM Nodes: 2  Procs: 16  *
                     *************************************************************************
  

       ****************************
       * SINGLE POINT CALCULATION *
       ****************************
 
--------
Geometry
--------
Formula: C27H37ClF4NO3PPdS
Atoms
  Index Symbol   x (angstrom)   y (angstrom)   z (angstrom)
      1      C    -0.62922300     1.17096700    -0.55695200       region=pdsubstrate adf.f=pdsubstrate
      2      C    -0.42690500     2.32699700    -1.33089900       region=pdsubstrate adf.f=pdsubstrate
      3      H     0.08800500     2.26403400    -2.29042200       region=pdsubstrate adf.f=pdsubstrate
      4      C    -0.83852800     3.55373800    -0.82825300       region=pdsubstrate adf.f=pdsubstrate
      5      H    -0.63764600     4.47625000    -1.37701600       region=pdsubstrate adf.f=pdsubstrate
      6      C    -1.49883500     3.65164400     0.41058300       region=pdsubstrate adf.f=pdsubstrate
      7      C    -1.82351100     2.49079700     1.11236400       region=pdsubstrate adf.f=pdsubstrate
      8      H    -2.42244100     2.52286900     2.02083400       region=pdsubstrate adf.f=pdsubstrate
      9      C    -1.43401600     1.24398900     0.60230000       region=pdsubstrate adf.f=pdsubstrate
     10      C    -1.92519700    -0.05615300     1.02043700       region=pdsubstrate adf.f=pdsubstrate
     11      C    -2.49296700    -0.43051200     2.23336500       region=pdsubstrate adf.f=pdsubstrate
     12      C    -2.93973700    -1.73335800     2.42921900       region=pdsubstrate adf.f=pdsubstrate
     13      C    -2.80384500    -2.67553900     1.40813500       region=pdsubstrate adf.f=pdsubstrate
     14      C    -2.22426500    -2.32873900     0.18784300       region=pdsubstrate adf.f=pdsubstrate
     15      C    -1.81435400    -1.01310600    -0.02003900       region=pdsubstrate adf.f=pdsubstrate
     16      N    -1.16134700    -0.52544300    -1.16492900       region=pdsubstrate adf.f=pdsubstrate
     17      S    -1.83885500    -0.50938400    -2.69034000       region=pdsubstrate adf.f=pdsubstrate
     18      O    -0.81552800     0.05054700    -3.56280400       region=pdsubstrate adf.f=pdsubstrate
     19      O    -2.48299600    -1.77603100    -2.97356200       region=pdsubstrate adf.f=pdsubstrate
     20      C    -3.12804700     0.75606400    -2.61663100       region=pdsubstrate adf.f=pdsubstrate
     21     Cl    -4.43686300     0.34214400    -1.51682300       region=pdsubstrate adf.f=pdsubstrate
     22      H    -3.50627200     0.82778300    -3.64579600       region=pdsubstrate adf.f=pdsubstrate
     23      H    -2.65469100     1.69669400    -2.30629600       region=pdsubstrate adf.f=pdsubstrate
     24      F    -2.03513600    -3.27669400    -0.70928300       region=pdsubstrate adf.f=pdsubstrate
     25      F    -3.18524500    -3.92316500     1.62338200       region=pdsubstrate adf.f=pdsubstrate
     26      F    -3.46772200    -2.09514800     3.58731300       region=pdsubstrate adf.f=pdsubstrate
     27      F    -2.60053000     0.43872600     3.23546000       region=pdsubstrate adf.f=pdsubstrate
     28      O    -1.81487700     4.90101500     0.81689800       region=pdsubstrate adf.f=pdsubstrate
     29      C    -2.50224600     5.05263500     2.02552300       region=pdsubstrate adf.f=pdsubstrate
     30      H    -1.93354300     4.63604700     2.87640700       region=pdsubstrate adf.f=pdsubstrate
     31      H    -3.49604300     4.57086600     1.99831300       region=pdsubstrate adf.f=pdsubstrate
     32      H    -2.63600900     6.13071600     2.18090700       region=pdsubstrate adf.f=pdsubstrate
     33     Pd     0.81589600    -0.25773300    -0.76878700       region=pdsubstrate adf.f=pdsubstrate
     34      P     2.84710600     0.18820200     0.20472500       region=ligand adf.f=ligand
     35      C     3.68935300    -1.37273200     0.77501200       region=ligand adf.f=ligand
     36      C     4.05579400     0.95972500    -1.03164300       region=ligand adf.f=ligand
     37      C     2.69439600     1.21363900     1.79212000       region=ligand adf.f=ligand
     38      C     2.98107200    -2.72965300     0.54026200       region=ligand adf.f=ligand
     39      H     3.87625500    -1.27155100     1.85482400       region=ligand adf.f=ligand
     40      H     4.68566800    -1.40264200     0.30590900       region=ligand adf.f=ligand
     41      C     5.39218000     1.38927500    -0.43212700       region=ligand adf.f=ligand
     42      C     4.29553700    -0.10089300    -2.11167800       region=ligand adf.f=ligand
     43      C     3.36812500     2.14859700    -1.70895800       region=ligand adf.f=ligand
     44      C     2.19534600     2.61699800     1.44477600       region=ligand adf.f=ligand
     45      C     1.61861000     0.50860200     2.62623500       region=ligand adf.f=ligand
     46      C     3.97369600     1.31387100     2.62365700       region=ligand adf.f=ligand
     47      C     2.64731200    -2.95983500    -0.93305400       region=ligand adf.f=ligand
     48      C     3.95335700    -3.82239400     0.99845600       region=ligand adf.f=ligand
     49      C     1.69888000    -2.83134800     1.36860500       region=ligand adf.f=ligand
     50      H     5.86901600     0.58743400     0.15258400       region=ligand adf.f=ligand
     51      H     6.08710700     1.66250000    -1.24366600       region=ligand adf.f=ligand
     52      H     5.28689600     2.27133300     0.21427800       region=ligand adf.f=ligand
     53      H     4.88295300     0.34897400    -2.92852100       region=ligand adf.f=ligand
     54      H     4.86183100    -0.96699800    -1.74100800       region=ligand adf.f=ligand
     55      H     3.34734500    -0.46189400    -2.53971600       region=ligand adf.f=ligand
     56      H     3.15365500     2.97160900    -1.01631500       region=ligand adf.f=ligand
     57      H     2.41861500     1.83815900    -2.16938400       region=ligand adf.f=ligand
     58      H     4.02308300     2.54132900    -2.50414800       region=ligand adf.f=ligand
     59      H     1.32905200     2.58997000     0.76862600       region=ligand adf.f=ligand
     60      H     1.88233400     3.12778100     2.36989800       region=ligand adf.f=ligand
     61      H     2.98130200     3.23208100     0.98427200       region=ligand adf.f=ligand
     62      H     1.43406600     1.09315000     3.54237800       region=ligand adf.f=ligand
     63      H     0.66941500     0.42694000     2.07729600       region=ligand adf.f=ligand
     64      H     1.92552900    -0.50058400     2.93503500       region=ligand adf.f=ligand
     65      H     3.74573500     1.84953900     3.56007200       region=ligand adf.f=ligand
     66      H     4.37448500     0.33009800     2.90876600       region=ligand adf.f=ligand
     67      H     4.76893200     1.87119800     2.11431700       region=ligand adf.f=ligand
     68      H     3.54361400    -2.92579000    -1.56979000       region=ligand adf.f=ligand
     69      H     1.93384900    -2.20375300    -1.32082300       region=ligand adf.f=ligand
     70      H     2.16727500    -3.94049400    -1.07066800       region=ligand adf.f=ligand
     71      H     4.22354700    -3.69547400     2.05894800       region=ligand adf.f=ligand
     72      H     3.50181800    -4.82013200     0.88401700       region=ligand adf.f=ligand
     73      H     4.88311600    -3.80374500     0.40759900       region=ligand adf.f=ligand
     74      H     1.20651200    -3.80097900     1.19731000       region=ligand adf.f=ligand
     75      H     1.90904900    -2.74649700     2.44655000       region=ligand adf.f=ligand
     76      H     0.97956000    -2.03970800     1.09564600       region=ligand adf.f=ligand
 
Total System Charge             0.00000
Bonding info available!
 
 
----------------
ADF Engine Input
----------------
 
 Basis
 Type TZP
 Core None
 End
 Fragments
 ligand ./ts_ptbu2np.ligand.results/adf.rkf
 pdsubstrate ./ts_ptbu2np.pdsubstrate.results/adf.rkf
 End
 XC
 Hybrid PBE0
 DISPERSION Grimme3 BJDAMP
 End
 NumericalQuality VeryGood
 

 Title: *** (NO TITLE) ***

 *** adf ***



 ===========================
 A T T A C H E D   F I L E S
 ===========================
  



 ===============================
 M O D E L   P A R A M E T E R S
 ===============================
  
 DENSITY FUNCTIONAL POTENTIAL (scf)
    Hybrid:                            PBE0                                    == Not Default ==

 SPIN  (restricted / unrestr.)
    Molecule:                          Restricted                               
    Fragments:                         Restricted                               

 OTHER ASPECTS
    Relativistic Corrections:          scalar (ZORA,MAPA)                       

    Nuclear Charge Density Model:      Point Charge Nuclei                      
    Core Treatment:                    Frozen Orbital(s)                        

    Hyperfine or Zeeman Interaction:   ---                                      

 Settings for Grimme D3 dispersion correction

      damping                        BJ
      s6                          1.000
      s8                          1.218
      a1                          0.414
      a2                          4.859

 Other (technical) parameters

      alpha                      14.000
      version                         4
 


 Fragment File(s)
 ----------------
 pdsubstrate:
         file : ./ts_ptbu2np.pdsubstrate.results/adf.rkf
         jobid: 101776669
         title: *** adf ***
 ligand:
         file : ./ts_ptbu2np.ligand.results/adf.rkf
         jobid: 865136830
         title: *** adf ***



 ===============
 G E O M E T R Y  ***  3D  Molecule  ***
 ===============
  

 ATOMS
 =====                            X Y Z                    CHARGE
                                (Angstrom)             Nucl     +Core       At.Mass
                       --------------------------    ----------------       -------
    1  C              -0.6292    1.1710   -0.5570      6.00      6.00       12.0000
    2  C              -0.4269    2.3270   -1.3309      6.00      6.00       12.0000
    3  H               0.0880    2.2640   -2.2904      1.00      1.00        1.0078
    4  C              -0.8385    3.5537   -0.8283      6.00      6.00       12.0000
    5  H              -0.6376    4.4763   -1.3770      1.00      1.00        1.0078
    6  C              -1.4988    3.6516    0.4106      6.00      6.00       12.0000
    7  C              -1.8235    2.4908    1.1124      6.00      6.00       12.0000
    8  H              -2.4224    2.5229    2.0208      1.00      1.00        1.0078
    9  C              -1.4340    1.2440    0.6023      6.00      6.00       12.0000
   10  C              -1.9252   -0.0562    1.0204      6.00      6.00       12.0000
   11  C              -2.4930   -0.4305    2.2334      6.00      6.00       12.0000
   12  C              -2.9397   -1.7334    2.4292      6.00      6.00       12.0000
   13  C              -2.8038   -2.6755    1.4081      6.00      6.00       12.0000
   14  C              -2.2243   -2.3287    0.1878      6.00      6.00       12.0000
   15  C              -1.8144   -1.0131   -0.0200      6.00      6.00       12.0000
   16  N              -1.1613   -0.5254   -1.1649      7.00      7.00       14.0031
   17  S              -1.8389   -0.5094   -2.6903     16.00     16.00       31.9721
   18  O              -0.8155    0.0505   -3.5628      8.00      8.00       15.9949
   19  O              -2.4830   -1.7760   -2.9736      8.00      8.00       15.9949
   20  C              -3.1280    0.7561   -2.6166      6.00      6.00       12.0000
   21  Cl             -4.4369    0.3421   -1.5168     17.00     17.00       34.9689
   22  H              -3.5063    0.8278   -3.6458      1.00      1.00        1.0078
   23  H              -2.6547    1.6967   -2.3063      1.00      1.00        1.0078
   24  F              -2.0351   -3.2767   -0.7093      9.00      9.00       18.9984
   25  F              -3.1852   -3.9232    1.6234      9.00      9.00       18.9984
   26  F              -3.4677   -2.0951    3.5873      9.00      9.00       18.9984
   27  F              -2.6005    0.4387    3.2355      9.00      9.00       18.9984
   28  O              -1.8149    4.9010    0.8169      8.00      8.00       15.9949
   29  C              -2.5022    5.0526    2.0255      6.00      6.00       12.0000
   30  H              -1.9335    4.6360    2.8764      1.00      1.00        1.0078
   31  H              -3.4960    4.5709    1.9983      1.00      1.00        1.0078
   32  H              -2.6360    6.1307    2.1809      1.00      1.00        1.0078
   33  Pd              0.8159   -0.2577   -0.7688     46.00     46.00      105.9035
   34  P               2.8471    0.1882    0.2047     15.00     15.00       30.9738
   35  C               3.6894   -1.3727    0.7750      6.00      6.00       12.0000
   36  C               4.0558    0.9597   -1.0316      6.00      6.00       12.0000
   37  C               2.6944    1.2136    1.7921      6.00      6.00       12.0000
   38  C               2.9811   -2.7297    0.5403      6.00      6.00       12.0000
   39  H               3.8763   -1.2716    1.8548      1.00      1.00        1.0078
   40  H               4.6857   -1.4026    0.3059      1.00      1.00        1.0078
   41  C               5.3922    1.3893   -0.4321      6.00      6.00       12.0000
   42  C               4.2955   -0.1009   -2.1117      6.00      6.00       12.0000
   43  C               3.3681    2.1486   -1.7090      6.00      6.00       12.0000
   44  C               2.1953    2.6170    1.4448      6.00      6.00       12.0000
   45  C               1.6186    0.5086    2.6262      6.00      6.00       12.0000
   46  C               3.9737    1.3139    2.6237      6.00      6.00       12.0000
   47  C               2.6473   -2.9598   -0.9331      6.00      6.00       12.0000
   48  C               3.9534   -3.8224    0.9985      6.00      6.00       12.0000
   49  C               1.6989   -2.8313    1.3686      6.00      6.00       12.0000
   50  H               5.8690    0.5874    0.1526      1.00      1.00        1.0078
   51  H               6.0871    1.6625   -1.2437      1.00      1.00        1.0078
   52  H               5.2869    2.2713    0.2143      1.00      1.00        1.0078
   53  H               4.8830    0.3490   -2.9285      1.00      1.00        1.0078
   54  H               4.8618   -0.9670   -1.7410      1.00      1.00        1.0078
   55  H               3.3473   -0.4619   -2.5397      1.00      1.00        1.0078
   56  H               3.1537    2.9716   -1.0163      1.00      1.00        1.0078
   57  H               2.4186    1.8382   -2.1694      1.00      1.00        1.0078
   58  H               4.0231    2.5413   -2.5041      1.00      1.00        1.0078
   59  H               1.3291    2.5900    0.7686      1.00      1.00        1.0078
   60  H               1.8823    3.1278    2.3699      1.00      1.00        1.0078
   61  H               2.9813    3.2321    0.9843      1.00      1.00        1.0078
   62  H               1.4341    1.0932    3.5424      1.00      1.00        1.0078
   63  H               0.6694    0.4269    2.0773      1.00      1.00        1.0078
   64  H               1.9255   -0.5006    2.9350      1.00      1.00        1.0078
   65  H               3.7457    1.8495    3.5601      1.00      1.00        1.0078
   66  H               4.3745    0.3301    2.9088      1.00      1.00        1.0078
   67  H               4.7689    1.8712    2.1143      1.00      1.00        1.0078
   68  H               3.5436   -2.9258   -1.5698      1.00      1.00        1.0078
   69  H               1.9338   -2.2038   -1.3208      1.00      1.00        1.0078
   70  H               2.1673   -3.9405   -1.0707      1.00      1.00        1.0078
   71  H               4.2235   -3.6955    2.0589      1.00      1.00        1.0078
   72  H               3.5018   -4.8201    0.8840      1.00      1.00        1.0078
   73  H               4.8831   -3.8037    0.4076      1.00      1.00        1.0078
   74  H               1.2065   -3.8010    1.1973      1.00      1.00        1.0078
   75  H               1.9090   -2.7465    2.4465      1.00      1.00        1.0078
   76  H               0.9796   -2.0397    1.0956      1.00      1.00        1.0078


 FRAGMENTS
 =========                                     Atoms in this Fragment     Cart. coord.s (Angstrom)
                                               -------------------------------------------------------
    1  pdsubstrate                                       1  C           -0.6292    1.1710   -0.5570
                                                         2  C           -0.4269    2.3270   -1.3309
                                                         4  C           -0.8385    3.5537   -0.8283
                                                         6  C           -1.4988    3.6516    0.4106
                                                         7  C           -1.8235    2.4908    1.1124
                                                         9  C           -1.4340    1.2440    0.6023
                                                        10  C           -1.9252   -0.0562    1.0204
                                                        11  C           -2.4930   -0.4305    2.2334
                                                        12  C           -2.9397   -1.7334    2.4292
                                                        13  C           -2.8038   -2.6755    1.4081
                                                        14  C           -2.2243   -2.3287    0.1878
                                                        15  C           -1.8144   -1.0131   -0.0200
                                                        20  C           -3.1280    0.7561   -2.6166
                                                        29  C           -2.5022    5.0526    2.0255
                                                         3  H            0.0880    2.2640   -2.2904
                                                         5  H           -0.6376    4.4763   -1.3770
                                                         8  H           -2.4224    2.5229    2.0208
                                                        22  H           -3.5063    0.8278   -3.6458
                                                        23  H           -2.6547    1.6967   -2.3063
                                                        30  H           -1.9335    4.6360    2.8764
                                                        31  H           -3.4960    4.5709    1.9983
                                                        32  H           -2.6360    6.1307    2.1809
                                                        16  N           -1.1613   -0.5254   -1.1649
                                                        17  S           -1.8389   -0.5094   -2.6903
                                                        18  O           -0.8155    0.0505   -3.5628
                                                        19  O           -2.4830   -1.7760   -2.9736
                                                        28  O           -1.8149    4.9010    0.8169
                                                        21  Cl          -4.4369    0.3421   -1.5168
                                                        24  F           -2.0351   -3.2767   -0.7093
                                                        25  F           -3.1852   -3.9232    1.6234
                                                        26  F           -3.4677   -2.0951    3.5873
                                                        27  F           -2.6005    0.4387    3.2355
                                                        33  Pd           0.8159   -0.2577   -0.7688
    2  ligand                                           44  C            2.1953    2.6170    1.4448
                                                        45  C            1.6186    0.5086    2.6262
                                                        46  C            3.9737    1.3139    2.6237
                                                        47  C            2.6473   -2.9598   -0.9331
                                                        48  C            3.9534   -3.8224    0.9985
                                                        49  C            1.6989   -2.8313    1.3686
                                                        35  C            3.6894   -1.3727    0.7750
                                                        36  C            4.0558    0.9597   -1.0316
                                                        37  C            2.6944    1.2136    1.7921
                                                        38  C            2.9811   -2.7297    0.5403
                                                        41  C            5.3922    1.3893   -0.4321
                                                        42  C            4.2955   -0.1009   -2.1117
                                                        43  C            3.3681    2.1486   -1.7090
                                                        50  H            5.8690    0.5874    0.1526
                                                        51  H            6.0871    1.6625   -1.2437
                                                        52  H            5.2869    2.2713    0.2143
                                                        53  H            4.8830    0.3490   -2.9285
                                                        54  H            4.8618   -0.9670   -1.7410
                                                        55  H            3.3473   -0.4619   -2.5397
                                                        56  H            3.1537    2.9716   -1.0163
                                                        57  H            2.4186    1.8382   -2.1694
                                                        58  H            4.0231    2.5413   -2.5041
                                                        59  H            1.3291    2.5900    0.7686
                                                        60  H            1.8823    3.1278    2.3699
                                                        61  H            2.9813    3.2321    0.9843
                                                        62  H            1.4341    1.0932    3.5424
                                                        63  H            0.6694    0.4269    2.0773
                                                        64  H            1.9255   -0.5006    2.9350
                                                        65  H            3.7457    1.8495    3.5601
                                                        66  H            4.3745    0.3301    2.9088
                                                        67  H            4.7689    1.8712    2.1143
                                                        68  H            3.5436   -2.9258   -1.5698
                                                        69  H            1.9338   -2.2038   -1.3208
                                                        70  H            2.1673   -3.9405   -1.0707
                                                        71  H            4.2235   -3.6955    2.0589
                                                        72  H            3.5018   -4.8201    0.8840
                                                        73  H            4.8831   -3.8037    0.4076
                                                        74  H            1.2065   -3.8010    1.1973
                                                        75  H            1.9090   -2.7465    2.4465
                                                        76  H            0.9796   -2.0397    1.0956
                                                        39  H            3.8763   -1.2716    1.8548
                                                        40  H            4.6857   -1.4026    0.3059
                                                        34  P            2.8471    0.1882    0.2047



 =====================================
 S Y M M E T R Y ,   E L E C T R O N S
 =====================================
  
 Symmetry: NOSYM

 Irreducible Representations, including subspecies
 -------------------------------------------------
 A


 Configuration of Valence Electrons
 ==================================
 ( determined in the SCF procedure )

 Total:   360

 Net Charge: 0 (Nuclei minus Electrons)

 Aufbau principle for MO occupations will be applied through SCF cycle no.     150
 Thereafter, the program will assign electrons to MOs that are spatially
 similar to the occupied MOs in a "reference" cycle ("KeepOrbitals").
 The reference cycle is always the PREVIOUS cycle: it will evolve with
 the SCF procedure.
1
 ***************************************************************************************************



                                      ****************************************
                                      *  B U I L D : (Fragments, Functions)  *
                                      ****************************************
  

 The individual fragments are copies of the corresponding 'Master' fragments defined on the fragment files.
 However, they may have been rotated (and translated) with respect to the Master. The local coordinate axes
 of each fragment (which define for instance the spatial orientation in the current molecule of a fragment
 P:x orbital) are not necessarily those of the molecule.
 The local frame (if different from the molecular one) is printed to enable an interpretation of the expan-
 sion of an MO in Fragment Orbitals.



                                         *********************************
                                         *  Fragment Type : pdsubstrate  *
                                         *********************************
  

 Fragment no.    1   (in the list of all fragments)
 -----------------
 The local coordinate frame is identical to the molecular frame.

 Check Atomic Coordinates:

                  Master (on file)          After Computed Tranformation               As specified on Input
           ----------------------------     ----------------------------     ---------------------------------
     1)    -0.62922   1.17097  -0.55695     -0.62922   1.17097  -0.55695       1  -0.62922   1.17097  -0.55695
     2)    -0.42690   2.32700  -1.33090     -0.42690   2.32700  -1.33090       2  -0.42690   2.32700  -1.33090
     3)    -0.83853   3.55374  -0.82825     -0.83853   3.55374  -0.82825       4  -0.83853   3.55374  -0.82825
     4)    -1.49883   3.65164   0.41058     -1.49883   3.65164   0.41058       6  -1.49883   3.65164   0.41058
     5)    -1.82351   2.49080   1.11236     -1.82351   2.49080   1.11236       7  -1.82351   2.49080   1.11236
     6)    -1.43402   1.24399   0.60230     -1.43402   1.24399   0.60230       9  -1.43402   1.24399   0.60230
     7)    -1.92520  -0.05615   1.02044     -1.92520  -0.05615   1.02044      10  -1.92520  -0.05615   1.02044
     8)    -2.49297  -0.43051   2.23337     -2.49297  -0.43051   2.23337      11  -2.49297  -0.43051   2.23337
     9)    -2.93974  -1.73336   2.42922     -2.93974  -1.73336   2.42922      12  -2.93974  -1.73336   2.42922
    10)    -2.80384  -2.67554   1.40813     -2.80384  -2.67554   1.40813      13  -2.80384  -2.67554   1.40813
    11)    -2.22426  -2.32874   0.18784     -2.22426  -2.32874   0.18784      14  -2.22426  -2.32874   0.18784
    12)    -1.81435  -1.01311  -0.02004     -1.81435  -1.01311  -0.02004      15  -1.81435  -1.01311  -0.02004
    13)    -3.12805   0.75606  -2.61663     -3.12805   0.75606  -2.61663      20  -3.12805   0.75606  -2.61663
    14)    -2.50225   5.05264   2.02552     -2.50225   5.05264   2.02552      29  -2.50225   5.05264   2.02552
    15)     0.08801   2.26403  -2.29042      0.08801   2.26403  -2.29042       3   0.08801   2.26403  -2.29042
    16)    -0.63765   4.47625  -1.37702     -0.63765   4.47625  -1.37702       5  -0.63765   4.47625  -1.37702
    17)    -2.42244   2.52287   2.02083     -2.42244   2.52287   2.02083       8  -2.42244   2.52287   2.02083
    18)    -3.50627   0.82778  -3.64580     -3.50627   0.82778  -3.64580      22  -3.50627   0.82778  -3.64580
    19)    -2.65469   1.69669  -2.30630     -2.65469   1.69669  -2.30630      23  -2.65469   1.69669  -2.30630
    20)    -1.93354   4.63605   2.87641     -1.93354   4.63605   2.87641      30  -1.93354   4.63605   2.87641
    21)    -3.49604   4.57087   1.99831     -3.49604   4.57087   1.99831      31  -3.49604   4.57087   1.99831
    22)    -2.63601   6.13072   2.18091     -2.63601   6.13072   2.18091      32  -2.63601   6.13072   2.18091
    23)    -1.16135  -0.52544  -1.16493     -1.16135  -0.52544  -1.16493      16  -1.16135  -0.52544  -1.16493
    24)    -1.83885  -0.50938  -2.69034     -1.83885  -0.50938  -2.69034      17  -1.83885  -0.50938  -2.69034
    25)    -0.81553   0.05055  -3.56280     -0.81553   0.05055  -3.56280      18  -0.81553   0.05055  -3.56280
    26)    -2.48300  -1.77603  -2.97356     -2.48300  -1.77603  -2.97356      19  -2.48300  -1.77603  -2.97356
    27)    -1.81488   4.90102   0.81690     -1.81488   4.90102   0.81690      28  -1.81488   4.90102   0.81690
    28)    -4.43686   0.34214  -1.51682     -4.43686   0.34214  -1.51682      21  -4.43686   0.34214  -1.51682
    29)    -2.03514  -3.27669  -0.70928     -2.03514  -3.27669  -0.70928      24  -2.03514  -3.27669  -0.70928
    30)    -3.18525  -3.92317   1.62338     -3.18525  -3.92317   1.62338      25  -3.18525  -3.92317   1.62338
    31)    -3.46772  -2.09515   3.58731     -3.46772  -2.09515   3.58731      26  -3.46772  -2.09515   3.58731
    32)    -2.60053   0.43873   3.23546     -2.60053   0.43873   3.23546      27  -2.60053   0.43873   3.23546
    33)     0.81590  -0.25773  -0.76879      0.81590  -0.25773  -0.76879      33   0.81590  -0.25773  -0.76879



                                            ****************************
                                            *  Fragment Type : ligand  *
                                            ****************************
  

 Fragment no.    2   (in the list of all fragments)
 -----------------
 The local coordinate frame is identical to the molecular frame.

 Check Atomic Coordinates:

                  Master (on file)          After Computed Tranformation               As specified on Input
           ----------------------------     ----------------------------     ---------------------------------
     1)     2.19535   2.61700   1.44478      2.19535   2.61700   1.44478      44   2.19535   2.61700   1.44478
     2)     1.61861   0.50860   2.62623      1.61861   0.50860   2.62623      45   1.61861   0.50860   2.62623
     3)     3.97370   1.31387   2.62366      3.97370   1.31387   2.62366      46   3.97370   1.31387   2.62366
     4)     2.64731  -2.95983  -0.93305      2.64731  -2.95983  -0.93305      47   2.64731  -2.95983  -0.93305
     5)     3.95336  -3.82239   0.99846      3.95336  -3.82239   0.99846      48   3.95336  -3.82239   0.99846
     6)     1.69888  -2.83135   1.36861      1.69888  -2.83135   1.36861      49   1.69888  -2.83135   1.36861
     7)     3.68935  -1.37273   0.77501      3.68935  -1.37273   0.77501      35   3.68935  -1.37273   0.77501
     8)     4.05579   0.95973  -1.03164      4.05579   0.95973  -1.03164      36   4.05579   0.95973  -1.03164
     9)     2.69440   1.21364   1.79212      2.69440   1.21364   1.79212      37   2.69440   1.21364   1.79212
    10)     2.98107  -2.72965   0.54026      2.98107  -2.72965   0.54026      38   2.98107  -2.72965   0.54026
    11)     5.39218   1.38928  -0.43213      5.39218   1.38928  -0.43213      41   5.39218   1.38928  -0.43213
    12)     4.29554  -0.10089  -2.11168      4.29554  -0.10089  -2.11168      42   4.29554  -0.10089  -2.11168
    13)     3.36813   2.14860  -1.70896      3.36813   2.14860  -1.70896      43   3.36813   2.14860  -1.70896
    14)     5.86902   0.58743   0.15258      5.86902   0.58743   0.15258      50   5.86902   0.58743   0.15258
    15)     6.08711   1.66250  -1.24367      6.08711   1.66250  -1.24367      51   6.08711   1.66250  -1.24367
    16)     5.28690   2.27133   0.21428      5.28690   2.27133   0.21428      52   5.28690   2.27133   0.21428
    17)     4.88295   0.34897  -2.92852      4.88295   0.34897  -2.92852      53   4.88295   0.34897  -2.92852
    18)     4.86183  -0.96700  -1.74101      4.86183  -0.96700  -1.74101      54   4.86183  -0.96700  -1.74101
    19)     3.34734  -0.46189  -2.53972      3.34734  -0.46189  -2.53972      55   3.34734  -0.46189  -2.53972
    20)     3.15366   2.97161  -1.01632      3.15366   2.97161  -1.01632      56   3.15366   2.97161  -1.01632
    21)     2.41861   1.83816  -2.16938      2.41861   1.83816  -2.16938      57   2.41861   1.83816  -2.16938
    22)     4.02308   2.54133  -2.50415      4.02308   2.54133  -2.50415      58   4.02308   2.54133  -2.50415
    23)     1.32905   2.58997   0.76863      1.32905   2.58997   0.76863      59   1.32905   2.58997   0.76863
    24)     1.88233   3.12778   2.36990      1.88233   3.12778   2.36990      60   1.88233   3.12778   2.36990
    25)     2.98130   3.23208   0.98427      2.98130   3.23208   0.98427      61   2.98130   3.23208   0.98427
    26)     1.43407   1.09315   3.54238      1.43407   1.09315   3.54238      62   1.43407   1.09315   3.54238
    27)     0.66941   0.42694   2.07730      0.66941   0.42694   2.07730      63   0.66941   0.42694   2.07730
    28)     1.92553  -0.50058   2.93504      1.92553  -0.50058   2.93504      64   1.92553  -0.50058   2.93504
    29)     3.74573   1.84954   3.56007      3.74573   1.84954   3.56007      65   3.74573   1.84954   3.56007
    30)     4.37448   0.33010   2.90877      4.37448   0.33010   2.90877      66   4.37448   0.33010   2.90877
    31)     4.76893   1.87120   2.11432      4.76893   1.87120   2.11432      67   4.76893   1.87120   2.11432
    32)     3.54361  -2.92579  -1.56979      3.54361  -2.92579  -1.56979      68   3.54361  -2.92579  -1.56979
    33)     1.93385  -2.20375  -1.32082      1.93385  -2.20375  -1.32082      69   1.93385  -2.20375  -1.32082
    34)     2.16728  -3.94049  -1.07067      2.16728  -3.94049  -1.07067      70   2.16728  -3.94049  -1.07067
    35)     4.22355  -3.69547   2.05895      4.22355  -3.69547   2.05895      71   4.22355  -3.69547   2.05895
    36)     3.50182  -4.82013   0.88402      3.50182  -4.82013   0.88402      72   3.50182  -4.82013   0.88402
    37)     4.88312  -3.80375   0.40760      4.88312  -3.80375   0.40760      73   4.88312  -3.80375   0.40760
    38)     1.20651  -3.80098   1.19731      1.20651  -3.80098   1.19731      74   1.20651  -3.80098   1.19731
    39)     1.90905  -2.74650   2.44655      1.90905  -2.74650   2.44655      75   1.90905  -2.74650   2.44655
    40)     0.97956  -2.03971   1.09565      0.97956  -2.03971   1.09565      76   0.97956  -2.03971   1.09565
    41)     3.87626  -1.27155   1.85482      3.87626  -1.27155   1.85482      39   3.87626  -1.27155   1.85482
    42)     4.68567  -1.40264   0.30591      4.68567  -1.40264   0.30591      40   4.68567  -1.40264   0.30591
    43)     2.84711   0.18820   0.20472      2.84711   0.18820   0.20472      34   2.84711   0.18820   0.20472

 Total nr. of (C)SFOs (summation over all irreps) :  1034

 Specify PRINT SFO in the input file to get a full list

 Nr. of SFOs for ir.rep.           A :  1034



 ================================
 (Slater-type)  F U N C T I O N S  ***  (Basis and Fit)  ***
 ================================
  

 Atom Type    1  (C)
 ==============

 Valence Basis Sets:   9
 -----------------------
   1 S    7.680000
   1 S    5.000000
   2 S    1.280000
   2 S    2.100000
   2 S    4.600000
   2 P    0.820000
   2 P    1.480000
   2 P    2.940000
   3 D    2.200000

 Charge Fitting Sets (for the computation of the Coulomb Potential):  22
 -----------------------------------------------------------------------
   1 S   15.360000
   2 S   17.530000
   2 S   12.070000
   2 S    8.310000
   2 S    5.730000
   3 S    5.780000
   3 S    4.220000
   3 S    3.080000
   3 S    2.250000
   3 S    1.640000
   2 P    9.880000
   2 P    5.800000
   3 P    5.050000
   3 P    3.230000
   3 P    2.060000
   3 D    7.200000
   3 D    4.400000
   3 D    2.690000
   3 D    1.640000
   4 F    5.400000
   4 F    3.550000
   5 G    4.500000

 Atom Type    2  (H)
 ==============

 Valence Basis Sets:   4
 -----------------------
   1 S    0.690000
   1 S    0.920000
   1 S    1.580000
   2 P    1.250000

 Charge Fitting Sets (for the computation of the Coulomb Potential):  11
 -----------------------------------------------------------------------
   1 S    3.160000
   1 S    2.090000
   1 S    1.380000
   2 S    1.500000
   2 P    4.000000
   2 P    2.650000
   2 P    1.750000
   3 D    4.000000
   3 D    2.500000
   4 F    3.000000
   5 G    4.000000

 Atom Type    3  (N)
 ==============

 Valence Basis Sets:   9
 -----------------------
   1 S    8.740000
   1 S    5.900000
   2 S    5.150000
   2 S    2.500000
   2 S    1.500000
   2 P    3.680000
   2 P    1.880000
   2 P    1.000000
   3 D    2.200000

 Charge Fitting Sets (for the computation of the Coulomb Potential):  22
 -----------------------------------------------------------------------
   1 S   17.480000
   2 S   20.150000
   2 S   13.990000
   2 S    9.710000
   2 S    6.740000
   3 S    6.860000
   3 S    5.040000
   3 S    3.700000
   3 S    2.720000
   3 S    2.000000
   2 P   11.320000
   2 P    6.730000
   3 P    5.920000
   3 P    3.820000
   3 P    2.460000
   3 D    8.100000
   3 D    5.080000
   3 D    3.190000
   3 D    2.000000
   4 F    5.800000
   4 F    3.600000
   5 G    4.500000

 Atom Type    4  (S)
 ==============

 Valence Basis Sets:  13
 -----------------------
   1 S   19.400000
   1 S   14.350000
   2 S    5.900000
   2 S    4.250000
   2 P    8.050000
   2 P    4.550000
   3 S    3.450000
   3 S    2.250000
   3 S    1.500000
   3 P    2.650000
   3 P    1.600000
   3 P    1.000000
   3 D    2.100000

 Charge Fitting Sets (for the computation of the Coulomb Potential):  30
 -----------------------------------------------------------------------
   1 S   38.800000
   1 S   23.350000
   2 S   26.020000
   2 S   17.570000
   3 S   17.420000
   3 S   12.500000
   3 S    8.980000
   4 S    8.520000
   4 S    6.360000
   4 S    4.750000
   5 S    4.420000
   5 S    3.390000
   5 S    2.600000
   5 S    2.000000
   2 P   27.450000
   3 P   20.250000
   4 P   14.920000
   4 P    8.780000
   5 P    6.520000
   5 P    4.040000
   5 P    2.500000
   3 D   20.900000
   4 D   14.560000
   4 D    8.130000
   5 D    5.740000
   5 D    3.390000
   5 D    2.000000
   4 F    5.000000
   4 F    3.000000
   5 G    3.620000

 Atom Type    5  (O)
 ==============

 Valence Basis Sets:   9
 -----------------------
   1 S    9.800000
   1 S    6.800000
   2 S    7.580000
   2 S    2.880000
   2 S    1.720000
   2 P    4.080000
   2 P    2.080000
   2 P    1.120000
   3 D    2.000000

 Charge Fitting Sets (for the computation of the Coulomb Potential):  22
 -----------------------------------------------------------------------
   1 S   19.600000
   2 S   22.600000
   2 S   15.680000
   2 S   10.890000
   2 S    7.560000
   3 S    7.690000
   3 S    5.650000
   3 S    4.150000
   3 S    3.050000
   3 S    2.240000
   2 P   12.860000
   2 P    7.680000
   3 P    6.780000
   3 P    4.390000
   3 P    2.840000
   3 D    8.800000
   3 D    5.580000
   3 D    3.530000
   3 D    2.240000
   4 F    6.200000
   4 F    3.700000
   5 G    4.500000

 Atom Type    6  (Cl)
 ==============

 Valence Basis Sets:  13
 -----------------------
   1 S   20.300000
   1 S   15.250000
   2 S    6.250000
   2 S    4.450000
   2 P    8.850000
   2 P    5.050000
   3 S    3.450000
   3 S    2.300000
   3 S    1.600000
   3 P    3.350000
   3 P    2.050000
   3 P    1.200000
   3 D    2.000000

 Charge Fitting Sets (for the computation of the Coulomb Potential):  30
 -----------------------------------------------------------------------
   1 S   40.600000
   1 S   24.830000
   2 S   28.080000
   2 S   19.200000
   3 S   19.250000
   3 S   13.970000
   3 S   10.130000
   4 S    9.710000
   4 S    7.320000
   4 S    5.510000
   5 S    5.170000
   5 S    4.000000
   5 S    3.100000
   5 S    2.400000
   2 P   29.150000
   3 P   21.740000
   4 P   16.160000
   4 P    9.600000
   5 P    7.180000
   5 P    4.480000
   5 P    2.800000
   3 D   21.950000
   4 D   15.750000
   4 D    9.040000
   5 D    6.550000
   5 D    3.960000
   5 D    2.400000
   4 F    5.000000
   4 F    3.000000
   5 G    3.500000

 Atom Type    7  (F)
 ==============

 Valence Basis Sets:   9
 -----------------------
   1 S   10.880000
   1 S    7.700000
   2 S    3.240000
   2 S    1.940000
   2 S    0.740000
   2 P    4.540000
   2 P    2.300000
   2 P    1.240000
   3 D    2.000000

 Charge Fitting Sets (for the computation of the Coulomb Potential):  23
 -----------------------------------------------------------------------
   1 S   21.760000
   2 S   24.390000
   2 S   16.560000
   2 S   11.240000
   2 S    7.630000
   3 S    7.600000
   3 S    5.480000
   3 S    3.950000
   3 S    2.850000
   3 S    2.050000
   3 S    1.480000
   2 P   14.400000
   2 P    7.530000
   3 P    5.900000
   3 P    3.420000
   3 P    1.980000
   3 D    9.700000
   3 D    6.160000
   3 D    3.910000
   3 D    2.480000
   4 F    6.500000
   4 F    3.750000
   5 G    4.500000

 Atom Type    8  (Pd)
 ==============

 Valence Basis Sets:  26
 -----------------------
   1 S  306.000000
   1 S   76.400000
   1 S   45.900000
   2 S   53.800000
   2 S   19.550000
   3 S   10.150000
   3 S    6.650000
   4 S    6.150000
   4 S    3.900000
   5 S    2.500000
   5 S    1.450000
   5 S    0.850000
   2 P   29.100000
   2 P   18.750000
   3 P   11.250000
   3 P    8.100000
   4 P    5.950000
   4 P    3.950000
   4 P    2.700000
   3 D   17.550000
   3 D   10.450000
   3 D    6.900000
   4 D    4.250000
   4 D    2.200000
   4 D    1.100000
   5 P    1.450000

 Charge Fitting Sets (for the computation of the Coulomb Potential):  58
 -----------------------------------------------------------------------
   1 S  612.000000
   1 S  446.101000
   1 S  325.174000
   1 S  237.027000
   1 S  172.774000
   1 S  125.939000
   1 S   91.800000
   1 S   53.670000
   2 S   58.190000
   2 S   38.430000
   3 S   37.300000
   3 S   26.280000
   4 S   24.500000
   4 S   18.000000
   5 S   16.470000
   5 S   12.460000
   6 S   11.300000
   6 S    8.740000
   7 S    7.890000
   7 S    6.210000
   8 S    5.590000
   8 S    4.470000
   8 S    3.570000
   9 S    3.210000
   9 S    2.600000
   9 S    2.100000
   9 S    1.700000
   2 P   64.650000
   3 P   49.410000
   4 P   37.530000
   5 P   28.620000
   6 P   21.980000
   6 P   14.500000
   7 P   11.220000
   7 P    7.620000
   8 P    5.940000
   8 P    4.130000
   9 P    3.240000
   9 P    2.300000
   3 D   56.350000
   4 D   37.260000
   5 D   25.120000
   6 D   17.230000
   6 D   10.190000
   7 D    7.110000
   7 D    4.360000
   8 D    3.090000
   8 D    1.950000
   4 F   47.900000
   5 F   28.270000
   6 F   17.190000
   6 F    9.040000
   7 F    5.640000
   7 F    3.100000
   5 G   20.900000
   6 G    9.980000
   7 G    4.980000
   7 G    2.200000

 Atom Type    9  (C)
 ==============

 Valence Basis Sets:   9
 -----------------------
   1 S    7.680000
   1 S    5.000000
   2 S    1.280000
   2 S    2.100000
   2 S    4.600000
   2 P    0.820000
   2 P    1.480000
   2 P    2.940000
   3 D    2.200000

 Charge Fitting Sets (for the computation of the Coulomb Potential):  22
 -----------------------------------------------------------------------
   1 S   15.360000
   2 S   17.530000
   2 S   12.070000
   2 S    8.310000
   2 S    5.730000
   3 S    5.780000
   3 S    4.220000
   3 S    3.080000
   3 S    2.250000
   3 S    1.640000
   2 P    9.880000
   2 P    5.800000
   3 P    5.050000
   3 P    3.230000
   3 P    2.060000
   3 D    7.200000
   3 D    4.400000
   3 D    2.690000
   3 D    1.640000
   4 F    5.400000
   4 F    3.550000
   5 G    4.500000

 Atom Type   10  (H)
 ==============

 Valence Basis Sets:   4
 -----------------------
   1 S    0.690000
   1 S    0.920000
   1 S    1.580000
   2 P    1.250000

 Charge Fitting Sets (for the computation of the Coulomb Potential):  11
 -----------------------------------------------------------------------
   1 S    3.160000
   1 S    2.090000
   1 S    1.380000
   2 S    1.500000
   2 P    4.000000
   2 P    2.650000
   2 P    1.750000
   3 D    4.000000
   3 D    2.500000
   4 F    3.000000
   5 G    4.000000

 Atom Type   11  (P)
 ==============

 Valence Basis Sets:  13
 -----------------------
   1 S   18.000000
   1 S   13.350000
   2 S    5.600000
   2 S    4.050000
   2 P    7.450000
   2 P    4.100000
   3 S    2.700000
   3 S    1.850000
   3 S    1.300000
   3 P    2.300000
   3 P    1.350000
   3 P    0.850000
   3 D    1.900000

 Charge Fitting Sets (for the computation of the Coulomb Potential):  30
 -----------------------------------------------------------------------
   1 S   36.000000
   1 S   21.450000
   2 S   23.670000
   2 S   15.860000
   3 S   15.600000
   3 S   11.130000
   3 S    7.940000
   4 S    7.490000
   4 S    5.560000
   4 S    4.130000
   5 S    3.810000
   5 S    2.910000
   5 S    2.230000
   5 S    1.700000
   2 P   25.450000
   3 P   18.490000
   4 P   13.440000
   4 P    7.810000
   5 P    5.730000
   5 P    3.510000
   5 P    2.150000
   3 D   19.350000
   4 D   13.230000
   4 D    7.250000
   5 D    5.040000
   5 D    2.930000
   5 D    1.700000
   4 F    5.000000
   4 F    3.000000
   5 G    3.750000


 BAS: List of all Elementary Cartesian Basis Functions
 =====================================================

 The numbering in the list below (to the right of the function characteristics) is referred
 to in print-outs of MO eigenvectors and Mulliken populations in the BAS representation
 (as contrasted to the SFO representation).

 Notes:
 1. The functions are characterized by a polynomial prefactor (powers of x,y,z and r) and
    an exponential decay factor alpha.
 2. Since the basis sets are specific for an atom TYPE, the individual functions occur on
    all atoms of that type.
 3. The word 'Core' in the left margin signals that it is a Core Function (CF) : not a
    degree of freedom in the valence set, but only used to ensure orthogonalization of
    the other valence basis functions on the frozen Core Orbitals.


 (power of) X  Y  Z  R     Alpha  on Atom
            ==========     =====     ==========

 C                                    1    2    3    4    5    6    7    8    9   10   11   12   13   14
                                  ---------------------------------------------------------------------------
            0  0  0  0     7.680      1   21   41   61   81  101  121  141  161  181  201  221  241  261
            0  0  0  0     5.000      2   22   42   62   82  102  122  142  162  182  202  222  242  262
            0  0  0  1     1.280      3   23   43   63   83  103  123  143  163  183  203  223  243  263
            0  0  0  1     2.100      4   24   44   64   84  104  124  144  164  184  204  224  244  264
            0  0  0  1     4.600      5   25   45   65   85  105  125  145  165  185  205  225  245  265
            1  0  0  0     0.820      6   26   46   66   86  106  126  146  166  186  206  226  246  266
            0  1  0  0     0.820      7   27   47   67   87  107  127  147  167  187  207  227  247  267
            0  0  1  0     0.820      8   28   48   68   88  108  128  148  168  188  208  228  248  268
            1  0  0  0     1.480      9   29   49   69   89  109  129  149  169  189  209  229  249  269
            0  1  0  0     1.480     10   30   50   70   90  110  130  150  170  190  210  230  250  270
            0  0  1  0     1.480     11   31   51   71   91  111  131  151  171  191  211  231  251  271
            1  0  0  0     2.940     12   32   52   72   92  112  132  152  172  192  212  232  252  272
            0  1  0  0     2.940     13   33   53   73   93  113  133  153  173  193  213  233  253  273
            0  0  1  0     2.940     14   34   54   74   94  114  134  154  174  194  214  234  254  274
            2  0  0  0     2.200     15   35   55   75   95  115  135  155  175  195  215  235  255  275
            1  1  0  0     2.200     16   36   56   76   96  116  136  156  176  196  216  236  256  276
            1  0  1  0     2.200     17   37   57   77   97  117  137  157  177  197  217  237  257  277
            0  2  0  0     2.200     18   38   58   78   98  118  138  158  178  198  218  238  258  278
            0  1  1  0     2.200     19   39   59   79   99  119  139  159  179  199  219  239  259  279
            0  0  2  0     2.200     20   40   60   80  100  120  140  160  180  200  220  240  260  280

 H                                   15   16   17   18   19   20   21   22
                                  ---------------------------------------------------------------------------
            0  0  0  0     0.690    281  287  293  299  305  311  317  323
            0  0  0  0     0.920    282  288  294  300  306  312  318  324
            0  0  0  0     1.580    283  289  295  301  307  313  319  325
            1  0  0  0     1.250    284  290  296  302  308  314  320  326
            0  1  0  0     1.250    285  291  297  303  309  315  321  327
            0  0  1  0     1.250    286  292  298  304  310  316  322  328

 N                                   23
                                  ---------------------------------------------------------------------------
            0  0  0  0     8.740    329
            0  0  0  0     5.900    330
            0  0  0  1     5.150    331
            0  0  0  1     2.500    332
            0  0  0  1     1.500    333
            1  0  0  0     3.680    334
            0  1  0  0     3.680    335
            0  0  1  0     3.680    336
            1  0  0  0     1.880    337
            0  1  0  0     1.880    338
            0  0  1  0     1.880    339
            1  0  0  0     1.000    340
            0  1  0  0     1.000    341
            0  0  1  0     1.000    342
            2  0  0  0     2.200    343
            1  1  0  0     2.200    344
            1  0  1  0     2.200    345
            0  2  0  0     2.200    346
            0  1  1  0     2.200    347
            0  0  2  0     2.200    348

 S                                   24
                                  ---------------------------------------------------------------------------
            0  0  0  0    19.400    349
            0  0  0  0    14.350    350
            0  0  0  1     5.900    351
            0  0  0  1     4.250    352
            1  0  0  0     8.050    353
            0  1  0  0     8.050    354
            0  0  1  0     8.050    355
            1  0  0  0     4.550    356
            0  1  0  0     4.550    357
            0  0  1  0     4.550    358
            0  0  0  2     3.450    359
            0  0  0  2     2.250    360
            0  0  0  2     1.500    361
            1  0  0  1     2.650    362
            0  1  0  1     2.650    363
            0  0  1  1     2.650    364
            1  0  0  1     1.600    365
            0  1  0  1     1.600    366
            0  0  1  1     1.600    367
            1  0  0  1     1.000    368
            0  1  0  1     1.000    369
            0  0  1  1     1.000    370
            2  0  0  0     2.100    371
            1  1  0  0     2.100    372
            1  0  1  0     2.100    373
            0  2  0  0     2.100    374
            0  1  1  0     2.100    375
            0  0  2  0     2.100    376

 O                                   25   26   27
                                  ---------------------------------------------------------------------------
            0  0  0  0     9.800    377  397  417
            0  0  0  0     6.800    378  398  418
            0  0  0  1     7.580    379  399  419
            0  0  0  1     2.880    380  400  420
            0  0  0  1     1.720    381  401  421
            1  0  0  0     4.080    382  402  422
            0  1  0  0     4.080    383  403  423
            0  0  1  0     4.080    384  404  424
            1  0  0  0     2.080    385  405  425
            0  1  0  0     2.080    386  406  426
            0  0  1  0     2.080    387  407  427
            1  0  0  0     1.120    388  408  428
            0  1  0  0     1.120    389  409  429
            0  0  1  0     1.120    390  410  430
            2  0  0  0     2.000    391  411  431
            1  1  0  0     2.000    392  412  432
            1  0  1  0     2.000    393  413  433
            0  2  0  0     2.000    394  414  434
            0  1  1  0     2.000    395  415  435
            0  0  2  0     2.000    396  416  436

 Cl                                  28
                                  ---------------------------------------------------------------------------
            0  0  0  0    20.300    437
            0  0  0  0    15.250    438
            0  0  0  1     6.250    439
            0  0  0  1     4.450    440
            1  0  0  0     8.850    441
            0  1  0  0     8.850    442
            0  0  1  0     8.850    443
            1  0  0  0     5.050    444
            0  1  0  0     5.050    445
            0  0  1  0     5.050    446
            0  0  0  2     3.450    447
            0  0  0  2     2.300    448
            0  0  0  2     1.600    449
            1  0  0  1     3.350    450
            0  1  0  1     3.350    451
            0  0  1  1     3.350    452
            1  0  0  1     2.050    453
            0  1  0  1     2.050    454
            0  0  1  1     2.050    455
            1  0  0  1     1.200    456
            0  1  0  1     1.200    457
            0  0  1  1     1.200    458
            2  0  0  0     2.000    459
            1  1  0  0     2.000    460
            1  0  1  0     2.000    461
            0  2  0  0     2.000    462
            0  1  1  0     2.000    463
            0  0  2  0     2.000    464

 F                                   29   30   31   32
                                  ---------------------------------------------------------------------------
            0  0  0  0    10.880    465  485  505  525
            0  0  0  0     7.700    466  486  506  526
            0  0  0  1     3.240    467  487  507  527
            0  0  0  1     1.940    468  488  508  528
            0  0  0  1     0.740    469  489  509  529
            1  0  0  0     4.540    470  490  510  530
            0  1  0  0     4.540    471  491  511  531
            0  0  1  0     4.540    472  492  512  532
            1  0  0  0     2.300    473  493  513  533
            0  1  0  0     2.300    474  494  514  534
            0  0  1  0     2.300    475  495  515  535
            1  0  0  0     1.240    476  496  516  536
            0  1  0  0     1.240    477  497  517  537
            0  0  1  0     1.240    478  498  518  538
            2  0  0  0     2.000    479  499  519  539
            1  1  0  0     2.000    480  500  520  540
            1  0  1  0     2.000    481  501  521  541
            0  2  0  0     2.000    482  502  522  542
            0  1  1  0     2.000    483  503  523  543
            0  0  2  0     2.000    484  504  524  544

 Pd                                  33
                                  ---------------------------------------------------------------------------
            0  0  0  0   306.000    545
            0  0  0  0    76.400    546
            0  0  0  0    45.900    547
            0  0  0  1    53.800    548
            0  0  0  1    19.550    549
            0  0  0  2    10.150    550
            0  0  0  2     6.650    551
            0  0  0  3     6.150    552
            0  0  0  3     3.900    553
            0  0  0  4     2.500    554
            0  0  0  4     1.450    555
            0  0  0  4     0.850    556
            1  0  0  0    29.100    557
            0  1  0  0    29.100    558
            0  0  1  0    29.100    559
            1  0  0  0    18.750    560
            0  1  0  0    18.750    561
            0  0  1  0    18.750    562
            1  0  0  1    11.250    563
            0  1  0  1    11.250    564
            0  0  1  1    11.250    565
            1  0  0  1     8.100    566
            0  1  0  1     8.100    567
            0  0  1  1     8.100    568
            1  0  0  2     5.950    569
            0  1  0  2     5.950    570
            0  0  1  2     5.950    571
            1  0  0  2     3.950    572
            0  1  0  2     3.950    573
            0  0  1  2     3.950    574
            1  0  0  2     2.700    575
            0  1  0  2     2.700    576
            0  0  1  2     2.700    577
            2  0  0  0    17.550    578
            1  1  0  0    17.550    579
            1  0  1  0    17.550    580
            0  2  0  0    17.550    581
            0  1  1  0    17.550    582
            0  0  2  0    17.550    583
            2  0  0  0    10.450    584
            1  1  0  0    10.450    585
            1  0  1  0    10.450    586
            0  2  0  0    10.450    587
            0  1  1  0    10.450    588
            0  0  2  0    10.450    589
            2  0  0  0     6.900    590
            1  1  0  0     6.900    591
            1  0  1  0     6.900    592
            0  2  0  0     6.900    593
            0  1  1  0     6.900    594
            0  0  2  0     6.900    595
            2  0  0  1     4.250    596
            1  1  0  1     4.250    597
            1  0  1  1     4.250    598
            0  2  0  1     4.250    599
            0  1  1  1     4.250    600
            0  0  2  1     4.250    601
            2  0  0  1     2.200    602
            1  1  0  1     2.200    603
            1  0  1  1     2.200    604
            0  2  0  1     2.200    605
            0  1  1  1     2.200    606
            0  0  2  1     2.200    607
            2  0  0  1     1.100    608
            1  1  0  1     1.100    609
            1  0  1  1     1.100    610
            0  2  0  1     1.100    611
            0  1  1  1     1.100    612
            0  0  2  1     1.100    613
            1  0  0  3     1.450    614
            0  1  0  3     1.450    615
            0  0  1  3     1.450    616

 C                                   34   35   36   37   38   39   40   41   42   43   44   45   46
                                  ---------------------------------------------------------------------------
            0  0  0  0     7.680    617  637  657  677  697  717  737  757  777  797  817  837  857
            0  0  0  0     5.000    618  638  658  678  698  718  738  758  778  798  818  838  858
            0  0  0  1     1.280    619  639  659  679  699  719  739  759  779  799  819  839  859
            0  0  0  1     2.100    620  640  660  680  700  720  740  760  780  800  820  840  860
            0  0  0  1     4.600    621  641  661  681  701  721  741  761  781  801  821  841  861
            1  0  0  0     0.820    622  642  662  682  702  722  742  762  782  802  822  842  862
            0  1  0  0     0.820    623  643  663  683  703  723  743  763  783  803  823  843  863
            0  0  1  0     0.820    624  644  664  684  704  724  744  764  784  804  824  844  864
            1  0  0  0     1.480    625  645  665  685  705  725  745  765  785  805  825  845  865
            0  1  0  0     1.480    626  646  666  686  706  726  746  766  786  806  826  846  866
            0  0  1  0     1.480    627  647  667  687  707  727  747  767  787  807  827  847  867
            1  0  0  0     2.940    628  648  668  688  708  728  748  768  788  808  828  848  868
            0  1  0  0     2.940    629  649  669  689  709  729  749  769  789  809  829  849  869
            0  0  1  0     2.940    630  650  670  690  710  730  750  770  790  810  830  850  870
            2  0  0  0     2.200    631  651  671  691  711  731  751  771  791  811  831  851  871
            1  1  0  0     2.200    632  652  672  692  712  732  752  772  792  812  832  852  872
            1  0  1  0     2.200    633  653  673  693  713  733  753  773  793  813  833  853  873
            0  2  0  0     2.200    634  654  674  694  714  734  754  774  794  814  834  854  874
            0  1  1  0     2.200    635  655  675  695  715  735  755  775  795  815  835  855  875
            0  0  2  0     2.200    636  656  676  696  716  736  756  776  796  816  836  856  876

 H                                   47   48   49   50   51   52   53   54   55   56   57   58   59   60   61
                                     62   63   64   65   66   67   68   69   70   71   72   73   74   75
                                  ---------------------------------------------------------------------------
            0  0  0  0     0.690    877  883  889  895  901  907  913  919  925  931  937  943  949  955  961
                                    967  973  979  985  991  997 1003 1009 1015 1021 1027 1033 1039 1045
            0  0  0  0     0.920    878  884  890  896  902  908  914  920  926  932  938  944  950  956  962
                                    968  974  980  986  992  998 1004 1010 1016 1022 1028 1034 1040 1046
            0  0  0  0     1.580    879  885  891  897  903  909  915  921  927  933  939  945  951  957  963
                                    969  975  981  987  993  999 1005 1011 1017 1023 1029 1035 1041 1047
            1  0  0  0     1.250    880  886  892  898  904  910  916  922  928  934  940  946  952  958  964
                                    970  976  982  988  994 1000 1006 1012 1018 1024 1030 1036 1042 1048
            0  1  0  0     1.250    881  887  893  899  905  911  917  923  929  935  941  947  953  959  965
                                    971  977  983  989  995 1001 1007 1013 1019 1025 1031 1037 1043 1049
            0  0  1  0     1.250    882  888  894  900  906  912  918  924  930  936  942  948  954  960  966
                                    972  978  984  990  996 1002 1008 1014 1020 1026 1032 1038 1044 1050

 P                                   76
                                  ---------------------------------------------------------------------------
            0  0  0  0    18.000   1051
            0  0  0  0    13.350   1052
            0  0  0  1     5.600   1053
            0  0  0  1     4.050   1054
            1  0  0  0     7.450   1055
            0  1  0  0     7.450   1056
            0  0  1  0     7.450   1057
            1  0  0  0     4.100   1058
            0  1  0  0     4.100   1059
            0  0  1  0     4.100   1060
            0  0  0  2     2.700   1061
            0  0  0  2     1.850   1062
            0  0  0  2     1.300   1063
            1  0  0  1     2.300   1064
            0  1  0  1     2.300   1065
            0  0  1  1     2.300   1066
            1  0  0  1     1.350   1067
            0  1  0  1     1.350   1068
            0  0  1  1     1.350   1069
            1  0  0  1     0.850   1070
            0  1  0  1     0.850   1071
            0  0  1  1     0.850   1072
            2  0  0  0     1.900   1073
            1  1  0  0     1.900   1074
            1  0  1  0     1.900   1075
            0  2  0  0     1.900   1076
            0  1  1  0     1.900   1077
            0  0  2  0     1.900   1078

 Total number of charge fitting functions (nprimf)      5349
 Total number of Cartesian basis functions (naos)       1078
 Total number of Cartesian core functions  (ncos)          0

1
 ***************************************************************************************************



                                              ***********************
                                              *  T E C H N I C A L  *
                                              ***********************
  



 =============================================================
 P A R A L L E L I Z A T I O N  and  V E C T O R I Z A T I O N
 =============================================================
  
 Nr of parallel processes:                               16
 Maximum vector length in NumInt loops:                 128



 =====================
 S C F   U P D A T E S
 =====================
  
 Max. nr. of cycles:                               300
 Convergence criterion:                              0.0000010000
   secondary criterion:                              0.0010000000

 Mix parameter (when DIIS does not apply):           0.2000000000
 Mixed ADIIS+SDIIS will be used                  
    Max number of expansion vectors:                10
    Pure ADIIS when Max([F,P]) is above              0.1000000000
    Pure SDIIS when Max([F,P]) is below              0.0010000000
 Automatic ElectronSmearing (in case of problematic SCF convergence) disabled



 =================
 P R E C I S I O N  ***  (General: NumInt, NeglectFunctionTails, ...)  ***
 =================
  

 NumInt:           Target precision:                 8.0000000000
 -------           Initial precision:                8.0000000000
                   Min. precision (optimization):    8.0000000000

 Neglect Functions:          Basis functions:        0.1000000000E-09
 ------------------          Fit functions:          0.1000000000E-09



 ===========================
 L I N E A R   S C A L I N G
 ===========================
  

 Cut-off radii density fit:                        0.1000000000E-11
 Overlap cut-off criterion AO matrix elements:     0.1000000000E-09
 Cut-offs for Coulomb potential and fitted density:0.1000000000E-11
 Cut-off criterion for Coulomb multipole terms:    0.1000000000E-11
 Progressive Convergence parameter:                 0.000000000    
1
 ***************************************************************************************************



                                            ***************************
                                            *  C O M P U T A T I O N  *
                                            ***************************
  

 Number of elements of the density matrix on this node (used, total):     36063    581581



 ===========================================
 Numerical Integration : Fuzzy Cells (Becke)
 ===========================================
  
 Becke grid quality: VERYGOOD       
  
 Lebedev angular grid order:             min:  13 max:  41
 Nr. of radial points:                   min:  64 max: 183

 Total nr. of points:    1831977
 Nr. of blocks:            14313
 Block length:               128
 Nr. of dummy points:         87


 Test of Precision of the Numerical Integration Grid
 ===================================================

 Integral of the Total Core Density:                   0.00000000000000



 ========================
 Density Fitting (zlmFit)
 ========================
  
 ZlmFit Fit Quality: VERYGOOD       
  
 Max L-expansion:                        min:   9 max:  10
 Nr. of radial interpolation points:     min: 120 max: 400



 ======================
 RI Hartree-Fock Scheme
 ======================
  
 Fit Set Quality     : VERYGOOD
 Threshold Quality   : VERYGOOD
 Integration Quality : VERYGOOD
 Fit Generation Method : AUTO
 Response Quality    : DEFAULT
 Is Range Separated  :  F
 
 RIHartreeFock Dependency: number of modified vectors:          67



 =====
 S C F  ***  ScaSCF  ***
 =====
  
 Initial density matrix is calculated as sum of fragments

 CYCLE    1
 SCF Error: norm([F,P])=      3.932254820126, max([F,P])=      2.222042916179
 orbitals (Q,E):
 ---------------
 A :171...190        ( 2.00    -0.3104)  ( 2.00    -0.3071)  ( 2.00    -0.2905)  ( 2.00    -0.2661)
                     ( 2.00    -0.2592)  ( 2.00    -0.2425)  ( 2.00    -0.2394)  ( 2.00    -0.2326)
                     ( 2.00    -0.2130)  ( 2.00    -0.1867)  ( 0.00    -0.0601)  ( 0.00    -0.0407)
                     ( 0.00    -0.0289)  ( 0.00    -0.0081)  ( 0.00    -0.0057)  ( 0.00     0.0022)
                     ( 0.00     0.0088)  ( 0.00     0.0096)  ( 0.00     0.0128)  ( 0.00     0.0182)

 CYCLE    2
   MIX coefficients:  0.8000  0.2000
 SCF Error: norm([F,P])=      0.432023120716, max([F,P])=      0.053442971417
 orbitals (Q,E):
 ---------------
 A :171...181        ( 2.00    -0.3130)  ( 2.00    -0.3058)  ( 2.00    -0.2924)  ( 2.00    -0.2680)
                     ( 2.00    -0.2661)  ( 2.00    -0.2647)  ( 2.00    -0.2587)  ( 2.00    -0.2581)
                     ( 2.00    -0.2297)  ( 2.00    -0.1955)  ( 0.00    -0.0573)

 CYCLE    3
  SDIIS (wt  0.000): -0.1695  1.1695
 A-DIIS (wt  1.000):  0.0000  1.0000
  DIIS coefficients:  0.0000  1.0000
 SCF Error: norm([F,P])=      0.089752821116, max([F,P])=      0.010775687243
 orbitals (Q,E):
 ---------------
 A :171...181        ( 2.00    -0.3136)  ( 2.00    -0.3028)  ( 2.00    -0.2916)  ( 2.00    -0.2815)
                     ( 2.00    -0.2776)  ( 2.00    -0.2752)  ( 2.00    -0.2587)  ( 2.00    -0.2574)
                     ( 2.00    -0.2354)  ( 2.00    -0.1986)  ( 0.00    -0.0516)

 CYCLE    4
  SDIIS (wt  0.000):  0.2007  0.2431  0.5562
 A-DIIS (wt  1.000): -0.0000  0.7140  0.2860
  DIIS coefficients: -0.0000  0.7140  0.2860
 SCF Error: norm([F,P])=      0.189185845817, max([F,P])=      0.020073542929
 orbitals (Q,E):
 ---------------
 A :171...181        ( 2.00    -0.3129)  ( 2.00    -0.3018)  ( 2.00    -0.2887)  ( 2.00    -0.2675)
                     ( 2.00    -0.2655)  ( 2.00    -0.2627)  ( 2.00    -0.2578)  ( 2.00    -0.2554)
                     ( 2.00    -0.2280)  ( 2.00    -0.1956)  ( 0.00    -0.0526)

 CYCLE    5
  SDIIS (wt  0.966): -0.2118  0.4480 -0.2130  0.9767
 A-DIIS (wt  0.034):  0.0000  0.0000  0.0000  1.0000
  DIIS coefficients: -0.2046  0.4328 -0.2058  0.9775
 SCF Error: norm([F,P])=      0.036506548123, max([F,P])=      0.004355402171
 orbitals (Q,E):
 ---------------
 A :171...181        ( 2.00    -0.3144)  ( 2.00    -0.3028)  ( 2.00    -0.2900)  ( 2.00    -0.2710)
                     ( 2.00    -0.2686)  ( 2.00    -0.2653)  ( 2.00    -0.2595)  ( 2.00    -0.2568)
                     ( 2.00    -0.2304)  ( 2.00    -0.1975)  ( 0.00    -0.0534)

 CYCLE    6
  SDIIS (wt  1.000): -0.0977  0.1534 -0.1081  0.4307  0.6217
  DIIS coefficients: -0.0977  0.1534 -0.1081  0.4307  0.6217
 SCF Error: norm([F,P])=      0.009532334972, max([F,P])=      0.000900690396
 orbitals (Q,E):
 ---------------
 A :171...181        ( 2.00    -0.3141)  ( 2.00    -0.3022)  ( 2.00    -0.2895)  ( 2.00    -0.2698)
                     ( 2.00    -0.2675)  ( 2.00    -0.2643)  ( 2.00    -0.2589)  ( 2.00    -0.2562)
                     ( 2.00    -0.2295)  ( 2.00    -0.1966)  ( 0.00    -0.0529)

 CYCLE    7
  SDIIS (wt  1.000): -0.0050 -0.0204  0.0062  0.0257  0.4921  0.5014
  DIIS coefficients: -0.0050 -0.0204  0.0062  0.0257  0.4921  0.5014
 SCF Error: norm([F,P])=      0.009106958344, max([F,P])=      0.000962889825
 orbitals (Q,E):
 ---------------
 A :171...181        ( 2.00    -0.3143)  ( 2.00    -0.3024)  ( 2.00    -0.2897)  ( 2.00    -0.2705)
                     ( 2.00    -0.2682)  ( 2.00    -0.2649)  ( 2.00    -0.2591)  ( 2.00    -0.2564)
                     ( 2.00    -0.2300)  ( 2.00    -0.1970)  ( 0.00    -0.0530)

 CYCLE    8
  SDIIS (wt  1.000):  0.0015 -0.0190  0.0096 -0.0089  0.2454  0.2888  0.4826
  DIIS coefficients:  0.0015 -0.0190  0.0096 -0.0089  0.2454  0.2888  0.4826
 SCF Error: norm([F,P])=      0.001716785729, max([F,P])=      0.000148599400
 orbitals (Q,E):
 ---------------
 A :171...181        ( 2.00    -0.3143)  ( 2.00    -0.3024)  ( 2.00    -0.2897)  ( 2.00    -0.2706)
                     ( 2.00    -0.2682)  ( 2.00    -0.2650)  ( 2.00    -0.2591)  ( 2.00    -0.2564)
                     ( 2.00    -0.2301)  ( 2.00    -0.1970)  ( 0.00    -0.0530)

 CYCLE    9
  SDIIS (wt  1.000):  0.0002 -0.0049  0.0018 -0.0082  0.0378  0.0655  0.2747  0.6331
  DIIS coefficients:  0.0002 -0.0049  0.0018 -0.0082  0.0378  0.0655  0.2747  0.6331
 SCF Error: norm([F,P])=      0.000589012389, max([F,P])=      0.000055056903
 orbitals (Q,E):
 ---------------
 A :171...181        ( 2.00    -0.3143)  ( 2.00    -0.3024)  ( 2.00    -0.2897)  ( 2.00    -0.2706)
                     ( 2.00    -0.2682)  ( 2.00    -0.2650)  ( 2.00    -0.2591)  ( 2.00    -0.2564)
                     ( 2.00    -0.2301)  ( 2.00    -0.1970)  ( 0.00    -0.0530)

 CYCLE   10
  SDIIS (wt  1.000): -0.0007  0.0009 -0.0015 -0.0026 -0.0200 -0.0096  0.0825  0.3552  0.5958
  DIIS coefficients: -0.0007  0.0009 -0.0015 -0.0026 -0.0200 -0.0096  0.0825  0.3552  0.5958
 SCF Error: norm([F,P])=      0.000234561831, max([F,P])=      0.000024152382
 orbitals (Q,E):
 ---------------
 A :171...181        ( 2.00    -0.3143)  ( 2.00    -0.3024)  ( 2.00    -0.2897)  ( 2.00    -0.2706)
                     ( 2.00    -0.2682)  ( 2.00    -0.2650)  ( 2.00    -0.2591)  ( 2.00    -0.2564)
                     ( 2.00    -0.2301)  ( 2.00    -0.1970)  ( 0.00    -0.0530)

 CYCLE   11
  SDIIS (wt  1.000): -0.0005  0.0014 -0.0012  0.0002 -0.0163 -0.0156 -0.0079  0.0586  0.3375  0.6439
  DIIS coefficients: -0.0005  0.0014 -0.0012  0.0002 -0.0163 -0.0156 -0.0079  0.0586  0.3375  0.6439
 SCF Error: norm([F,P])=      0.000097629680, max([F,P])=      0.000008712608
 orbitals (Q,E):
 ---------------
 A :171...181        ( 2.00    -0.3143)  ( 2.00    -0.3024)  ( 2.00    -0.2897)  ( 2.00    -0.2706)
                     ( 2.00    -0.2682)  ( 2.00    -0.2650)  ( 2.00    -0.2591)  ( 2.00    -0.2564)
                     ( 2.00    -0.2301)  ( 2.00    -0.1970)  ( 0.00    -0.0530)

 CYCLE   12
  SDIIS (wt  1.000):  0.0004 -0.0002 -0.0001 -0.0057 -0.0063 -0.0145 -0.0210  0.1094  0.3686  0.5694
  DIIS coefficients:  0.0004 -0.0002 -0.0001 -0.0057 -0.0063 -0.0145 -0.0210  0.1094  0.3686  0.5694
 SCF Error: norm([F,P])=      0.000042522329, max([F,P])=      0.000003731913
 orbitals (Q,E):
 ---------------
 A :171...181        ( 2.00    -0.3143)  ( 2.00    -0.3024)  ( 2.00    -0.2897)  ( 2.00    -0.2706)
                     ( 2.00    -0.2682)  ( 2.00    -0.2650)  ( 2.00    -0.2591)  ( 2.00    -0.2564)
                     ( 2.00    -0.2301)  ( 2.00    -0.1970)  ( 0.00    -0.0530)

 CYCLE   13
  SDIIS (wt  1.000): -0.0000  0.0002  0.0008  0.0004 -0.0043 -0.0183  0.0128  0.1048  0.3395  0.5641
  DIIS coefficients: -0.0000  0.0002  0.0008  0.0004 -0.0043 -0.0183  0.0128  0.1048  0.3395  0.5641
 SCF Error: norm([F,P])=      0.000023157359, max([F,P])=      0.000002137732
 orbitals (Q,E):
 ---------------
 A :171...181        ( 2.00    -0.3143)  ( 2.00    -0.3024)  ( 2.00    -0.2897)  ( 2.00    -0.2706)
                     ( 2.00    -0.2682)  ( 2.00    -0.2650)  ( 2.00    -0.2591)  ( 2.00    -0.2564)
                     ( 2.00    -0.2301)  ( 2.00    -0.1970)  ( 0.00    -0.0530)

 CYCLE   14
  SDIIS (wt  1.000):  0.0001  0.0005  0.0004 -0.0016 -0.0102 -0.0135 -0.0033  0.0942  0.2966  0.6368
  DIIS coefficients:  0.0001  0.0005  0.0004 -0.0016 -0.0102 -0.0135 -0.0033  0.0942  0.2966  0.6368
 SCF Error: norm([F,P])=      0.000008471657, max([F,P])=      0.000000685371
 orbitals (Q,E):
 ---------------
[...]
     450       25.9923         0.000       
     449       25.9233         0.000       
     448       25.6661         0.000       
     447       25.6237         0.000       
     446       25.4571         0.000       
     445       25.3707         0.000       
     444       25.2672         0.000       
     443       25.1604         0.000       
     442       25.0173         0.000       
     441       24.6849         0.000       
     440       24.6430         0.000       
     439       24.5539         0.000       
     438       24.4385         0.000       
     437       24.3416         0.000       
     436       24.1681         0.000       
     435       24.0099         0.000       
     434       23.6535         0.000       
     433       23.4817         0.000       
     432       23.3914         0.000       
     431       23.3617         0.000       
     430       23.1786         0.000       
     429       23.0286         0.000       
     428       22.9931         0.000       
     427       22.7811         0.000       
     426       22.6755         0.000       
     425       22.5329         0.000       
     424       22.3807         0.000       
     423       22.3033         0.000       
     422       22.2112         0.000       
     421       22.0483         0.000       
     420       21.7334         0.000       
     419       21.6293         0.000       
     418       21.4654         0.000       
     417       21.4346         0.000       
     416       21.1815         0.000       
     415       21.1463         0.000       
     414       20.9159         0.000       
     413       20.7846         0.000       
     412       20.7663         0.000       
     411       20.6617         0.000       
     410       20.5853         0.000       
     409       20.4184         0.000       
     408       20.2041         0.000       
     407       20.1373         0.000       
     406       19.9897         0.000       
     405       19.8666         0.000       
     404       19.7789         0.000       
     403       19.6653         0.000       
     402       19.5359         0.000       
     401       19.4464         0.000       
     400       19.4011         0.000       
     399       19.2993         0.000       
     398       18.8632         0.000       
     397       18.8270         0.000       
     396       18.7114         0.000       
     395       18.6298         0.000       
     394       18.5849         0.000       
     393       18.5129         0.000       
     392       18.4450         0.000       
     391       18.3671         0.000       
     390       18.2841         0.000       
     389       18.1566         0.000       
     388       17.9978         0.000       
     387       17.8810         0.000       
     386       17.7640         0.000       
     385       17.6553         0.000       
     384       17.5835         0.000       
     383       17.4157         0.000       
     382       17.2832         0.000       
     381       17.2186         0.000       
     380       17.0969         0.000       
     379       16.9591         0.000       
     378       16.8440         0.000       
     377       16.7075         0.000       
     376       16.5999         0.000       
     375       16.5659         0.000       
     374       16.4686         0.000       
     373       16.3700         0.000       
     372       16.3560         0.000       
     371       16.2423         0.000       
     370       16.1826         0.000       
     369       15.9802         0.000       
     368       15.9256         0.000       
     367       15.8513         0.000       
     366       15.7345         0.000       
     365       15.6371         0.000       
     364       15.5435         0.000       
     363       15.3967         0.000       
     362       15.3795         0.000       
     361       15.2247         0.000       
     360       15.1768         0.000       
     359       15.1101         0.000       
     358       14.9939         0.000       
     357       14.7620         0.000       
     356       14.6650         0.000       
     355       14.6373         0.000       
     354       14.6068         0.000       
     353       14.4943         0.000       
     352       14.4301         0.000       
     351       14.3423         0.000       
     350       14.2797         0.000       
     349       14.1020         0.000       
     348       13.9131         0.000       
     347       13.8379         0.000       
     346       13.7021         0.000       
     345       13.6151         0.000       
     344       13.5147         0.000       
     343       13.5012         0.000       
     342       13.3856         0.000       
     341       13.2452         0.000       
     340       13.1563         0.000       
     339       13.1113         0.000       
     338       12.9619         0.000       
     337       12.8875         0.000       
     336       12.8073         0.000       
     335       12.7464         0.000       
     334       12.5932         0.000       
     333       12.4756         0.000       
     332       12.4195         0.000       
     331       12.3714         0.000       
     330       12.3499         0.000       
     329       12.2536         0.000       
     328       12.0480         0.000       
     327       11.9930         0.000       
     326       11.9359         0.000       
     325       11.8634         0.000       
     324       11.8004         0.000       
     323       11.7802         0.000       
     322       11.6201         0.000       
     321       11.6049         0.000       
     320       11.4649         0.000       
     319       11.4367         0.000       
     318       11.3090         0.000       
     317       11.2413         0.000       
     316       11.2248         0.000       
     315       11.1509         0.000       
     314       11.0942         0.000       
     313       11.0225         0.000       
     312       10.8951         0.000       
     311       10.7463         0.000       
     310       10.6784         0.000       
     309       10.6247         0.000       
     308       10.4819         0.000       
     307       10.3959         0.000       
     306       10.3158         0.000       
     305       10.3009         0.000       
     304       10.1980         0.000       
     303       10.1692         0.000       
     302        9.9652         0.000       
     301        9.8686         0.000       
     300        9.8268         0.000       
     299        9.7368         0.000       
     298        9.6544         0.000       
     297        9.5953         0.000       
     296        9.4820         0.000       
     295        9.3581         0.000       
     294        9.2487         0.000       
     293        9.2300         0.000       
     292        9.1508         0.000       
     291        9.0821         0.000       
     290        8.9713         0.000       
     289        8.8513         0.000       
     288        8.7562         0.000       
     287        8.6901         0.000       
     286        8.5709         0.000       
     285        8.4478         0.000       
     284        8.3459         0.000       
     283        8.3198         0.000       
     282        8.2556         0.000       
     281        8.1241         0.000       
     280        8.1107         0.000       
     279        7.9643         0.000       
     278        7.9383         0.000       
     277        7.8578         0.000       
     276        7.8324         0.000       
     275        7.6776         0.000       
     274        7.5125         0.000       
     273        7.4662         0.000       
     272        7.3786         0.000       
     271        7.2157         0.000       
     270        7.1740         0.000       
     269        6.9630         0.000       
     268        6.9397         0.000       
     267        6.8829         0.000       
     266        6.8260         0.000       
     265        6.6926         0.000       
     264        6.5795         0.000       
     263        6.5174         0.000       
     262        6.3942         0.000       
     261        6.3089         0.000       
     260        6.2581         0.000       
     259        6.2165         0.000       
     258        6.0655         0.000       
     257        5.9981         0.000       
     256        5.9137         0.000       
     255        5.8780         0.000       
     254        5.7736         0.000       
     253        5.7076         0.000       
     252        5.4742         0.000       
     251        5.3552         0.000       
     250        5.3086         0.000       
     249        5.2171         0.000       
     248        5.1410         0.000       
     247        5.0873         0.000       
     246        4.9973         0.000       
     245        4.8941         0.000       
     244        4.8808         0.000       
     243        4.7857         0.000       
     242        4.7081         0.000       
     241        4.5957         0.000       
     240        4.5761         0.000       
     239        4.5142         0.000       
     238        4.4637         0.000       
     237        4.4038         0.000       
     236        4.3040         0.000       
     235        4.2507         0.000       
     234        4.1696         0.000       
     233        4.1193         0.000       
     232        3.9322         0.000       
     231        3.8636         0.000       
     230        3.8303         0.000       
     229        3.7398         0.000       
     228        3.6969         0.000       
     227        3.5543         0.000       
     226        3.4995         0.000       
     225        3.4729         0.000       
     224        3.4432         0.000       
     223        3.3320         0.000       
     222        3.2844         0.000       
     221        3.1393         0.000       
     220        3.1270         0.000       
     219        2.9941         0.000       
     218        2.8996         0.000       
     217        2.7611         0.000       
     216        2.6789         0.000       
     215        2.6116         0.000       
     214        2.5367         0.000       
     213        2.4507         0.000       
     212        2.4266         0.000       
     211        2.3733         0.000       
     210        2.2424         0.000       
     209        2.2166         0.000       
     208        2.1751         0.000       
     207        1.9902         0.000       
     206        1.9536         0.000       
     205        1.8716         0.000       
     204        1.8282         0.000       
     203        1.7613         0.000       
     202        1.6689         0.000       
     201        1.5842         0.000       
     200        1.5193         0.000       
     199        1.4186         0.000       
     198        1.3613         0.000       
     197        1.2553         0.000       
     196        1.1252         0.000       
     195        1.0511         0.000       
     194        0.8514         0.000       
     193        0.8399         0.000       
     192        0.6688         0.000       
     191        0.5910         0.000       
     190        0.5448         0.000       
     189        0.4698         0.000       
     188        0.3149         0.000       
     187        0.1813         0.000       
     186        0.1650         0.000       
     185       -0.0095         0.000       
     184       -0.1302         0.000       
     183       -0.6642         0.000       
     182       -1.2371         0.000       
     181       -1.4419         0.000 < LUMO
     180       -5.3598         2.000 < HOMO
     179       -6.2605         2.000       
     178       -6.9781         2.000       
     177       -7.0513         2.000       
     176       -7.2104         2.000       
     175       -7.2984         2.000       
     174       -7.3631         2.000       
     173       -7.8827         2.000       
     172       -8.2282         2.000       
     171       -8.5518         2.000       
     170       -8.5659         2.000       
     169       -8.6498         2.000       
     168       -8.8810         2.000       
     167       -8.9180         2.000       
     166       -9.0478         2.000       
     165       -9.3444         2.000       
     164       -9.4606         2.000       
     163       -9.5568         2.000       
     162       -9.6006         2.000       
     161       -9.6517         2.000       
     160       -9.6717         2.000       
     159       -9.7496         2.000       
     158       -9.7729         2.000       
     157       -9.9100         2.000       
     156       -9.9637         2.000       
     155      -10.1111         2.000       
     154      -10.1291         2.000       
     153      -10.2659         2.000       
     152      -10.3575         2.000       
     151      -10.4897         2.000       
     150      -10.5161         2.000       
     149      -10.5455         2.000       
     148      -10.7496         2.000       
     147      -10.8450         2.000       
     146      -10.9261         2.000       
     145      -11.0050         2.000       
     144      -11.0573         2.000       
     143      -11.1140         2.000       
     142      -11.2832         2.000       
     141      -11.4324         2.000       
     140      -11.5462         2.000       
     139      -11.5937         2.000       
     138      -11.6553         2.000       
     137      -11.8350         2.000       
     136      -12.0246         2.000       
     135      -12.2327         2.000       
     134      -12.3550         2.000       
     133      -12.3944         2.000       
     132      -12.4370         2.000       
     131      -12.4897         2.000       
     130      -12.5513         2.000       
     129      -12.6157         2.000       
     128      -12.6525         2.000       
     127      -12.8731         2.000       
     126      -12.8968         2.000       
     125      -13.0301         2.000       
     124      -13.2002         2.000       
     123      -13.2171         2.000       
     122      -13.2284         2.000       
     121      -13.3091         2.000       
     120      -13.4572         2.000       
     119      -13.5198         2.000       
     118      -13.5378         2.000       
     117      -13.6986         2.000       
     116      -13.7511         2.000       
     115      -13.9846         2.000       
     114      -14.1770         2.000       
     113      -14.3161         2.000       
     112      -14.5946         2.000       
     111      -14.6952         2.000       
     110      -14.8007         2.000       
     109      -15.1133         2.000       
     108      -15.3101         2.000       
     107      -15.4460         2.000       
     106      -15.4655         2.000       
     105      -15.8474         2.000       
     104      -16.0899         2.000       
     103      -16.2847         2.000       
     102      -16.3643         2.000       
     101      -17.1049         2.000       
     100      -17.4247         2.000       
      99      -17.6538         2.000       
      98      -17.7336         2.000       
      97      -18.7566         2.000       
      96      -18.9613         2.000       
      95      -19.3335         2.000       
      94      -19.4596         2.000       
      93      -19.5107         2.000       
      92      -19.5743         2.000       
      91      -19.6450         2.000       
      90      -19.8370         2.000       
      89      -19.9743         2.000       
      88      -20.2817         2.000       
      87      -20.4921         2.000       
      86      -21.1786         2.000       
      85      -21.5373         2.000       
      84      -21.7994         2.000       
      83      -22.6778         2.000       
      82      -23.0943         2.000       
      81      -23.3702         2.000       
      80      -23.7942         2.000       
      79      -24.4793         2.000       
      78      -24.6681         2.000       
      77      -24.8643         2.000       
      76      -27.0105         2.000       
      75      -28.4198         2.000       
      74      -30.4267         2.000       
      73      -31.4177         2.000       
      72      -34.8825         2.000       
      71      -35.0564         2.000       
      70      -35.2988         2.000       
      69      -35.5369         2.000       
      68      -57.0621         2.000       
      67      -57.5351         2.000       
      66      -57.8692         2.000       
      65      -92.8459         2.000       
      64     -129.3440         2.000       
      63     -129.4216         2.000       
      62     -129.4276         2.000       
      61     -166.1356         2.000       
      60     -166.1482         2.000       
      59     -166.1887         2.000       
      58     -181.2093         2.000       
      57     -197.6208         2.000       
      56     -197.6330         2.000       
      55     -197.9154         2.000       
      54     -223.7037         2.000       
      53     -261.2679         2.000       
      52     -278.1462         2.000       
      51     -278.2867         2.000       
      50     -278.2918         2.000       
      49     -278.3237         2.000       
      48     -278.3361         2.000       
      47     -278.3607         2.000       
      46     -278.4855         2.000       
      45     -278.4918         2.000       
      44     -278.5810         2.000       
      43     -278.8710         2.000       
      42     -278.8962         2.000       
      41     -278.8988         2.000       
      40     -278.9157         2.000       
      39     -279.1990         2.000       
      38     -279.2787         2.000       
      37     -279.4578         2.000       
      36     -279.4850         2.000       
      35     -279.5490         2.000       
      34     -280.0059         2.000       
      33     -280.2738         2.000       
      32     -280.3562         2.000       
      31     -280.4461         2.000       
      30     -280.9270         2.000       
      29     -281.4282         2.000       
      28     -281.4582         2.000       
      27     -281.4853         2.000       
      26     -281.5012         2.000       
      25     -337.0889         2.000       
      24     -337.1042         2.000       
      23     -337.1655         2.000       
      22     -337.2509         2.000       
      21     -337.2597         2.000       
      20     -393.4795         2.000       
      19     -523.1094         2.000       
      18     -523.1728         2.000       
      17     -524.2057         2.000       
      16     -530.9381         2.000       
      15     -531.1148         2.000       
      14     -531.1938         2.000       
      13     -652.9170         2.000       
      12     -675.3681         2.000       
      11     -675.6245         2.000       
      10     -675.6570         2.000       
       9     -675.6613         2.000       
       8    -2107.2848         2.000       
       7    -2435.4828         2.000       
       6    -2777.4919         2.000       
       5    -3189.0603         2.000       
       4    -3189.1416         2.000       
       3    -3189.1635         2.000       
       2    -3560.0663         2.000       
       1   -24223.2946         2.000       

AMS application finished. Exiting.
NORMAL TERMINATION
     Total cpu time:    3156.87
  Total system time:      36.41
 Total elapsed time:    3209.06
NORMAL TERMINATION
