

 Parallel Execution: Process Information
 ==============================================================================
 Rank   Node Name                              NodeID   MyNodeRank  NodeMaster
    0   eu-g5-012-2                               0          0          0
    1   eu-g5-012-2                               1          0          1
    2   eu-g5-012-2                               0          1         -1
    3   eu-g5-012-2                               1          1         -1
    4   eu-g5-012-2                               0          2         -1
    5   eu-g5-012-2                               1          2         -1
    6   eu-g5-012-2                               0          3         -1
    7   eu-g5-012-2                               1          3         -1
    8   eu-g5-012-2                               0          4         -1
    9   eu-g5-012-2                               1          4         -1
   10   eu-g5-012-2                               0          5         -1
   11   eu-g5-012-2                               1          5         -1
   12   eu-g5-012-2                               0          6         -1
   13   eu-g5-012-2                               1          6         -1
   14   eu-g5-012-2                               0          7         -1
   15   eu-g5-012-2                               1          7         -1
 ==============================================================================


May use up to 30549MB of RAM as shared memory on node 0
May use up to 30759MB of RAM as shared memory on node 1

 *******************************************************************************
 *                                                                             *
 *  --------------------------------                                           *
 *   Amsterdam Modeling Suite (AMS)              2023.101                      *
 *  --------------------------------                                           *
 *                                               r111868 2023-03-31            *
 *                                                                             *
 *                                                                             *
 *                              =================                              *
 *                              |               |                              *
 *                              |     A M S     |                              *
 *                              |               |                              *
 *                              =================                              *
 *                                                                             *
 *                                                                             *
 *   Online information and documentation:  https://www.scm.com/support/       *
 *   E-mail:  support@scm.com   info@scm.com                                   *
 *                                                                             *
 *   Scientific publications using AMS results must be properly referenced     *
 *   See the User Manuals (or the web site) for recommended citations          *
 *   The terms and conditions of the End User License Agreement apply to       *
 *   the use of AMS, https://www.scm.com/license-terms/                        *
 *                                                                             *
 ***********************  x86_64_linux_intel / openmpi  ************************
 
 Licensed to: D-CHAB / ETH site license / Zurich / Switzerland 2023-06-23 15:55:12
 SCM User ID: u7035
  
 AMS 2023.101  RunTime: May25-2024 09:19:17  ShM Nodes: 2  Procs: 16

 AMS jobname: ts_pad2nbu
 AMS jobid  : 1408808728

 Start   directory: /cluster/scratch/sroediger/michael/eda/
 Results directory: /cluster/scratch/sroediger/michael/eda/ts_pad2nbu.results/
 Scratch directory: /scratch/amstmp_ts_pad2nbu_kid0.1408808728/


 Communication costs MPI_COMM_WORLD:      7.434 usec per message,   0.0177 usec per 8-byte item
 Communication costs for intra-node:      3.475 usec per message,   0.0193 usec per 8-byte item

 RNG seed: -1909066915 623548316 1976620282 1058576383 1180915665 323126379 -1850030894 -1652863069



                     *************************************************************************
                     *  ADF 2023.101  RunTime: May25-2024 09:19:18  ShM Nodes: 2  Procs: 16  *
                     *************************************************************************
  

       ****************************
       * SINGLE POINT CALCULATION *
       ****************************
 
--------
Geometry
--------
Formula: C38H47ClF4NO3PPdS
Atoms
  Index Symbol   x (angstrom)   y (angstrom)   z (angstrom)
      1     Pd    -0.17727000    -0.84852100     0.72919600       region=pdsubstrate adf.f=pdsubstrate
      2      C     1.54581300     0.18908000     1.04738700       region=pdsubstrate adf.f=pdsubstrate
      3      C     1.68420800     0.63379800     2.37260300       region=pdsubstrate adf.f=pdsubstrate
      4      H     1.25448200     0.05764700     3.19195600       region=pdsubstrate adf.f=pdsubstrate
      5      C     2.31816200     1.84521000     2.61297100       region=pdsubstrate adf.f=pdsubstrate
      6      H     2.37668700     2.25238100     3.62461600       region=pdsubstrate adf.f=pdsubstrate
      7      C     2.88201300     2.59374300     1.56354800       region=pdsubstrate adf.f=pdsubstrate
      8      C     2.88418700     2.07218600     0.26987500       region=pdsubstrate adf.f=pdsubstrate
      9      H     3.40978700     2.56962900    -0.54337800       region=pdsubstrate adf.f=pdsubstrate
     10      C     2.24879200     0.84833100     0.01662300       region=pdsubstrate adf.f=pdsubstrate
     11      C     2.36467300     0.04180700    -1.18307700       region=pdsubstrate adf.f=pdsubstrate
     12      C     2.70443000     0.43777300    -2.47144000       region=pdsubstrate adf.f=pdsubstrate
     13      C     2.80646800    -0.50167300    -3.49195200       region=pdsubstrate adf.f=pdsubstrate
     14      C     2.54839000    -1.84725700    -3.22368100       region=pdsubstrate adf.f=pdsubstrate
     15      C     2.17758400    -2.26490500    -1.94516500       region=pdsubstrate adf.f=pdsubstrate
     16      C     2.11163600    -1.32720600    -0.91621400       region=pdsubstrate adf.f=pdsubstrate
     17      N     1.69640300    -1.57898800     0.40349800       region=pdsubstrate adf.f=pdsubstrate
     18      S     2.50519100    -2.59815400     1.45031500       region=pdsubstrate adf.f=pdsubstrate
     19      O     1.73441900    -2.57623200     2.68654200       region=pdsubstrate adf.f=pdsubstrate
     20      O     2.85548100    -3.83619300     0.78366100       region=pdsubstrate adf.f=pdsubstrate
     21      C     4.04443900    -1.73943300     1.85317500       region=pdsubstrate adf.f=pdsubstrate
     22     Cl     5.11224700    -1.54919600     0.46841700       region=pdsubstrate adf.f=pdsubstrate
     23      H     4.52163200    -2.37105900     2.61521600       region=pdsubstrate adf.f=pdsubstrate
     24      H     3.78046100    -0.75762900     2.26705900       region=pdsubstrate adf.f=pdsubstrate
     25      F     1.85123200    -3.53001300    -1.76884000       region=pdsubstrate adf.f=pdsubstrate
     26      F     2.60309900    -2.72526100    -4.21085200       region=pdsubstrate adf.f=pdsubstrate
     27      F     3.11840200    -0.12734600    -4.72213700       region=pdsubstrate adf.f=pdsubstrate
     28      F     2.90966500     1.72230800    -2.75982200       region=pdsubstrate adf.f=pdsubstrate
     29      O     3.43128000     3.77943000     1.90620800       region=pdsubstrate adf.f=pdsubstrate
     30      C     3.99741900     4.56481600     0.89586400       region=pdsubstrate adf.f=pdsubstrate
     31      H     3.26131600     4.81221100     0.10978900       region=pdsubstrate adf.f=pdsubstrate
     32      H     4.86374100     4.06852100     0.42324000       region=pdsubstrate adf.f=pdsubstrate
     33      H     4.33833900     5.49363500     1.37044500       region=pdsubstrate adf.f=pdsubstrate
     34      C    -3.14133400     2.72982300    -0.65442500       region=ligand adf.f=ligand
     35      H    -3.77093500     2.92510900     0.23051500       region=ligand adf.f=ligand
     36      H    -3.73402000     2.10567800    -1.34125800       region=ligand adf.f=ligand
     37      C    -2.79725000     4.05163900    -1.35375000       region=ligand adf.f=ligand
     38      H    -3.73535400     4.56272800    -1.62734900       region=ligand adf.f=ligand
     39      C    -1.98306700     3.75646800    -2.61702000       region=ligand adf.f=ligand
     40      H    -1.75692600     4.69562500    -3.14953100       region=ligand adf.f=ligand
     41      H    -2.57191700     3.13000300    -3.30887100       region=ligand adf.f=ligand
     42      C    -0.68581700     3.04255600    -2.23030400       region=ligand adf.f=ligand
     43      H    -0.09566700     2.81554000    -3.13340800       region=ligand adf.f=ligand
     44      C     0.13015800     3.93671100    -1.29734500       region=ligand adf.f=ligand
     45      H     0.38894800     4.88149200    -1.80543000       region=ligand adf.f=ligand
     46      H     1.07505400     3.43808700    -1.03393500       region=ligand adf.f=ligand
     47      C    -0.68345200     4.22268600    -0.03497800       region=ligand adf.f=ligand
     48      H    -0.09350500     4.84878900     0.65508200       region=ligand adf.f=ligand
     49      C    -1.02154800     2.90679200     0.67180000       region=ligand adf.f=ligand
     50      H    -0.09721600     2.38789000     0.97174900       region=ligand adf.f=ligand
     51      H    -1.58085400     3.13177100     1.59393300       region=ligand adf.f=ligand
     52      C    -1.85494800     1.99464300    -0.25391800       region=ligand adf.f=ligand
     53      P    -2.11217400     0.38851500     0.68421500       region=ligand adf.f=ligand
     54      C    -2.85701600     0.90193200     2.30215200       region=ligand adf.f=ligand
     55      H    -3.33057900     1.88675500     2.16313900       region=ligand adf.f=ligand
     56      H    -3.67847200     0.20024100     2.51373300       region=ligand adf.f=ligand
     57      C    -1.89997500     0.91486400     3.49252400       region=ligand adf.f=ligand
     58      H    -0.99221300     1.49130600     3.24687200       region=ligand adf.f=ligand
     59      H    -2.39043400     1.45711200     4.32024100       region=ligand adf.f=ligand
     60      C    -1.50070200    -0.47244800     3.97676100       region=ligand adf.f=ligand
     61      H    -2.41218900    -1.07066900     4.15554000       region=ligand adf.f=ligand
     62      H    -0.95396200    -0.99656100     3.16870300       region=ligand adf.f=ligand
     63      C    -0.65536900    -0.44937300     5.23888200       region=ligand adf.f=ligand
     64      H    -0.33151100    -1.46115900     5.52327700       region=ligand adf.f=ligand
     65      H    -1.21022700    -0.01802900     6.08783300       region=ligand adf.f=ligand
     66      H     0.25258200     0.16049300     5.10460900       region=ligand adf.f=ligand
     67      C    -3.44693200    -0.69906300    -0.07133900       region=ligand adf.f=ligand
     68      C    -3.33944700    -2.03454200     0.69950200       region=ligand adf.f=ligand
     69      H    -2.30512700    -2.42227300     0.62650200       region=ligand adf.f=ligand
     70      H    -3.53319000    -1.87671200     1.77382900       region=ligand adf.f=ligand
     71      C    -4.31984400    -3.06620100     0.13829900       region=ligand adf.f=ligand
     72      H    -4.22082800    -4.00041300     0.71478900       region=ligand adf.f=ligand
     73      C    -3.98453200    -3.32559800    -1.33162200       region=ligand adf.f=ligand
     74      H    -4.66598800    -4.08512600    -1.75013100       region=ligand adf.f=ligand
     75      H    -2.96131100    -3.72765700    -1.42066300       region=ligand adf.f=ligand
     76      C    -4.10778800    -2.01814400    -2.11590900       region=ligand adf.f=ligand
     77      H    -3.86064300    -2.19524600    -3.17554300       region=ligand adf.f=ligand
     78      C    -3.13579200    -0.97747300    -1.55133000       region=ligand adf.f=ligand
     79      H    -3.22810600    -0.04857400    -2.13514100       region=ligand adf.f=ligand
     80      H    -2.09165000    -1.32236100    -1.65555400       region=ligand adf.f=ligand
     81      C    -5.53715200    -1.48233700    -2.00080600       region=ligand adf.f=ligand
     82      H    -5.64153900    -0.55089700    -2.58320500       region=ligand adf.f=ligand
     83      H    -6.25085700    -2.20749200    -2.42662300       region=ligand adf.f=ligand
     84      C    -5.86685100    -1.22301900    -0.52864900       region=ligand adf.f=ligand
     85      H    -6.89312400    -0.82921800    -0.44191200       region=ligand adf.f=ligand
     86      C    -4.89164400    -0.18463400     0.04280200       region=ligand adf.f=ligand
     87      H    -5.00758200     0.76469300    -0.49965000       region=ligand adf.f=ligand
     88      H    -5.15053500     0.01602400     1.09467400       region=ligand adf.f=ligand
     89      C    -5.74771900    -2.52916000     0.25904800       region=ligand adf.f=ligand
     90      H    -6.46670500    -3.27181700    -0.12574000       region=ligand adf.f=ligand
     91      H    -6.00059700    -2.35819700     1.31938600       region=ligand adf.f=ligand
     92      C    -1.01914400     1.72635900    -1.52069500       region=ligand adf.f=ligand
     93      H    -1.56483300     1.06922800    -2.21235800       region=ligand adf.f=ligand
     94      H    -0.09630600     1.19387700    -1.24225600       region=ligand adf.f=ligand
     95      C    -1.98162900     4.94005300    -0.41126500       region=ligand adf.f=ligand
     96      H    -1.75759900     5.90349700    -0.89943800       region=ligand adf.f=ligand
     97      H    -2.56715900     5.16901500     0.49577700       region=ligand adf.f=ligand
 
Total System Charge             0.00000
Bonding info available!
 
 
----------------
ADF Engine Input
----------------
 
 Basis
 Type TZP
 Core None
 End
 Fragments
 ligand ./ts_pad2nbu.ligand.results/adf.rkf
 pdsubstrate ./ts_pad2nbu.pdsubstrate.results/adf.rkf
 End
 XC
 Hybrid PBE0
 DISPERSION Grimme3 BJDAMP
 End
 NumericalQuality VeryGood
 

 Title: *** (NO TITLE) ***

 *** adf ***



 ===========================
 A T T A C H E D   F I L E S
 ===========================
  



 ===============================
 M O D E L   P A R A M E T E R S
 ===============================
  
 DENSITY FUNCTIONAL POTENTIAL (scf)
    Hybrid:                            PBE0                                    == Not Default ==

 SPIN  (restricted / unrestr.)
    Molecule:                          Restricted                               
    Fragments:                         Restricted                               

 OTHER ASPECTS
    Relativistic Corrections:          scalar (ZORA,MAPA)                       

    Nuclear Charge Density Model:      Point Charge Nuclei                      
    Core Treatment:                    Frozen Orbital(s)                        

    Hyperfine or Zeeman Interaction:   ---                                      

 Settings for Grimme D3 dispersion correction

      damping                        BJ
      s6                          1.000
      s8                          1.218
      a1                          0.414
      a2                          4.859

 Other (technical) parameters

      alpha                      14.000
      version                         4
 


 Fragment File(s)
 ----------------
 pdsubstrate:
         file : ./ts_pad2nbu.pdsubstrate.results/adf.rkf
         jobid: 11193870
         title: *** adf ***
 ligand:
         file : ./ts_pad2nbu.ligand.results/adf.rkf
         jobid: 1404299334
         title: *** adf ***



 ===============
 G E O M E T R Y  ***  3D  Molecule  ***
 ===============
  

 ATOMS
 =====                            X Y Z                    CHARGE
                                (Angstrom)             Nucl     +Core       At.Mass
                       --------------------------    ----------------       -------
    1  Pd             -0.1773   -0.8485    0.7292     46.00     46.00      105.9035
    2  C               1.5458    0.1891    1.0474      6.00      6.00       12.0000
    3  C               1.6842    0.6338    2.3726      6.00      6.00       12.0000
    4  H               1.2545    0.0576    3.1920      1.00      1.00        1.0078
    5  C               2.3182    1.8452    2.6130      6.00      6.00       12.0000
    6  H               2.3767    2.2524    3.6246      1.00      1.00        1.0078
    7  C               2.8820    2.5937    1.5635      6.00      6.00       12.0000
    8  C               2.8842    2.0722    0.2699      6.00      6.00       12.0000
    9  H               3.4098    2.5696   -0.5434      1.00      1.00        1.0078
   10  C               2.2488    0.8483    0.0166      6.00      6.00       12.0000
   11  C               2.3647    0.0418   -1.1831      6.00      6.00       12.0000
   12  C               2.7044    0.4378   -2.4714      6.00      6.00       12.0000
   13  C               2.8065   -0.5017   -3.4920      6.00      6.00       12.0000
   14  C               2.5484   -1.8473   -3.2237      6.00      6.00       12.0000
   15  C               2.1776   -2.2649   -1.9452      6.00      6.00       12.0000
   16  C               2.1116   -1.3272   -0.9162      6.00      6.00       12.0000
   17  N               1.6964   -1.5790    0.4035      7.00      7.00       14.0031
   18  S               2.5052   -2.5982    1.4503     16.00     16.00       31.9721
   19  O               1.7344   -2.5762    2.6865      8.00      8.00       15.9949
   20  O               2.8555   -3.8362    0.7837      8.00      8.00       15.9949
   21  C               4.0444   -1.7394    1.8532      6.00      6.00       12.0000
   22  Cl              5.1122   -1.5492    0.4684     17.00     17.00       34.9689
   23  H               4.5216   -2.3711    2.6152      1.00      1.00        1.0078
   24  H               3.7805   -0.7576    2.2671      1.00      1.00        1.0078
   25  F               1.8512   -3.5300   -1.7688      9.00      9.00       18.9984
   26  F               2.6031   -2.7253   -4.2109      9.00      9.00       18.9984
   27  F               3.1184   -0.1273   -4.7221      9.00      9.00       18.9984
   28  F               2.9097    1.7223   -2.7598      9.00      9.00       18.9984
   29  O               3.4313    3.7794    1.9062      8.00      8.00       15.9949
   30  C               3.9974    4.5648    0.8959      6.00      6.00       12.0000
   31  H               3.2613    4.8122    0.1098      1.00      1.00        1.0078
   32  H               4.8637    4.0685    0.4232      1.00      1.00        1.0078
   33  H               4.3383    5.4936    1.3704      1.00      1.00        1.0078
   34  C              -3.1413    2.7298   -0.6544      6.00      6.00       12.0000
   35  H              -3.7709    2.9251    0.2305      1.00      1.00        1.0078
   36  H              -3.7340    2.1057   -1.3413      1.00      1.00        1.0078
   37  C              -2.7973    4.0516   -1.3538      6.00      6.00       12.0000
   38  H              -3.7354    4.5627   -1.6273      1.00      1.00        1.0078
   39  C              -1.9831    3.7565   -2.6170      6.00      6.00       12.0000
   40  H              -1.7569    4.6956   -3.1495      1.00      1.00        1.0078
   41  H              -2.5719    3.1300   -3.3089      1.00      1.00        1.0078
   42  C              -0.6858    3.0426   -2.2303      6.00      6.00       12.0000
   43  H              -0.0957    2.8155   -3.1334      1.00      1.00        1.0078
   44  C               0.1302    3.9367   -1.2973      6.00      6.00       12.0000
   45  H               0.3889    4.8815   -1.8054      1.00      1.00        1.0078
   46  H               1.0751    3.4381   -1.0339      1.00      1.00        1.0078
   47  C              -0.6835    4.2227   -0.0350      6.00      6.00       12.0000
   48  H              -0.0935    4.8488    0.6551      1.00      1.00        1.0078
   49  C              -1.0215    2.9068    0.6718      6.00      6.00       12.0000
   50  H              -0.0972    2.3879    0.9717      1.00      1.00        1.0078
   51  H              -1.5809    3.1318    1.5939      1.00      1.00        1.0078
   52  C              -1.8549    1.9946   -0.2539      6.00      6.00       12.0000
   53  P              -2.1122    0.3885    0.6842     15.00     15.00       30.9738
   54  C              -2.8570    0.9019    2.3022      6.00      6.00       12.0000
   55  H              -3.3306    1.8868    2.1631      1.00      1.00        1.0078
   56  H              -3.6785    0.2002    2.5137      1.00      1.00        1.0078
   57  C              -1.9000    0.9149    3.4925      6.00      6.00       12.0000
   58  H              -0.9922    1.4913    3.2469      1.00      1.00        1.0078
   59  H              -2.3904    1.4571    4.3202      1.00      1.00        1.0078
   60  C              -1.5007   -0.4724    3.9768      6.00      6.00       12.0000
   61  H              -2.4122   -1.0707    4.1555      1.00      1.00        1.0078
   62  H              -0.9540   -0.9966    3.1687      1.00      1.00        1.0078
   63  C              -0.6554   -0.4494    5.2389      6.00      6.00       12.0000
   64  H              -0.3315   -1.4612    5.5233      1.00      1.00        1.0078
   65  H              -1.2102   -0.0180    6.0878      1.00      1.00        1.0078
   66  H               0.2526    0.1605    5.1046      1.00      1.00        1.0078
   67  C              -3.4469   -0.6991   -0.0713      6.00      6.00       12.0000
   68  C              -3.3394   -2.0345    0.6995      6.00      6.00       12.0000
   69  H              -2.3051   -2.4223    0.6265      1.00      1.00        1.0078
   70  H              -3.5332   -1.8767    1.7738      1.00      1.00        1.0078
   71  C              -4.3198   -3.0662    0.1383      6.00      6.00       12.0000
   72  H              -4.2208   -4.0004    0.7148      1.00      1.00        1.0078
   73  C              -3.9845   -3.3256   -1.3316      6.00      6.00       12.0000
   74  H              -4.6660   -4.0851   -1.7501      1.00      1.00        1.0078
   75  H              -2.9613   -3.7277   -1.4207      1.00      1.00        1.0078
   76  C              -4.1078   -2.0181   -2.1159      6.00      6.00       12.0000
   77  H              -3.8606   -2.1952   -3.1755      1.00      1.00        1.0078
   78  C              -3.1358   -0.9775   -1.5513      6.00      6.00       12.0000
   79  H              -3.2281   -0.0486   -2.1351      1.00      1.00        1.0078
   80  H              -2.0917   -1.3224   -1.6556      1.00      1.00        1.0078
   81  C              -5.5372   -1.4823   -2.0008      6.00      6.00       12.0000
   82  H              -5.6415   -0.5509   -2.5832      1.00      1.00        1.0078
   83  H              -6.2509   -2.2075   -2.4266      1.00      1.00        1.0078
   84  C              -5.8669   -1.2230   -0.5286      6.00      6.00       12.0000
   85  H              -6.8931   -0.8292   -0.4419      1.00      1.00        1.0078
   86  C              -4.8916   -0.1846    0.0428      6.00      6.00       12.0000
   87  H              -5.0076    0.7647   -0.4996      1.00      1.00        1.0078
   88  H              -5.1505    0.0160    1.0947      1.00      1.00        1.0078
   89  C              -5.7477   -2.5292    0.2590      6.00      6.00       12.0000
   90  H              -6.4667   -3.2718   -0.1257      1.00      1.00        1.0078
   91  H              -6.0006   -2.3582    1.3194      1.00      1.00        1.0078
   92  C              -1.0191    1.7264   -1.5207      6.00      6.00       12.0000
   93  H              -1.5648    1.0692   -2.2124      1.00      1.00        1.0078
   94  H              -0.0963    1.1939   -1.2423      1.00      1.00        1.0078
   95  C              -1.9816    4.9401   -0.4113      6.00      6.00       12.0000
   96  H              -1.7576    5.9035   -0.8994      1.00      1.00        1.0078
   97  H              -2.5672    5.1690    0.4958      1.00      1.00        1.0078


 FRAGMENTS
 =========                                     Atoms in this Fragment     Cart. coord.s (Angstrom)
                                               -------------------------------------------------------
    1  pdsubstrate                                       1  Pd          -0.1773   -0.8485    0.7292
                                                         2  C            1.5458    0.1891    1.0474
                                                         3  C            1.6842    0.6338    2.3726
                                                         5  C            2.3182    1.8452    2.6130
                                                         7  C            2.8820    2.5937    1.5635
                                                         8  C            2.8842    2.0722    0.2699
                                                        10  C            2.2488    0.8483    0.0166
                                                        11  C            2.3647    0.0418   -1.1831
                                                        12  C            2.7044    0.4378   -2.4714
                                                        13  C            2.8065   -0.5017   -3.4920
                                                        14  C            2.5484   -1.8473   -3.2237
                                                        15  C            2.1776   -2.2649   -1.9452
                                                        16  C            2.1116   -1.3272   -0.9162
                                                        21  C            4.0444   -1.7394    1.8532
                                                        30  C            3.9974    4.5648    0.8959
                                                         4  H            1.2545    0.0576    3.1920
                                                         6  H            2.3767    2.2524    3.6246
                                                         9  H            3.4098    2.5696   -0.5434
                                                        23  H            4.5216   -2.3711    2.6152
                                                        24  H            3.7805   -0.7576    2.2671
                                                        31  H            3.2613    4.8122    0.1098
                                                        32  H            4.8637    4.0685    0.4232
                                                        33  H            4.3383    5.4936    1.3704
                                                        17  N            1.6964   -1.5790    0.4035
                                                        18  S            2.5052   -2.5982    1.4503
                                                        19  O            1.7344   -2.5762    2.6865
                                                        20  O            2.8555   -3.8362    0.7837
                                                        29  O            3.4313    3.7794    1.9062
                                                        22  Cl           5.1122   -1.5492    0.4684
                                                        25  F            1.8512   -3.5300   -1.7688
                                                        26  F            2.6031   -2.7253   -4.2109
                                                        27  F            3.1184   -0.1273   -4.7221
                                                        28  F            2.9097    1.7223   -2.7598
    2  ligand                                           65  H           -1.2102   -0.0180    6.0878
                                                        66  H            0.2526    0.1605    5.1046
                                                        69  H           -2.3051   -2.4223    0.6265
                                                        70  H           -3.5332   -1.8767    1.7738
                                                        72  H           -4.2208   -4.0004    0.7148
                                                        74  H           -4.6660   -4.0851   -1.7501
                                                        75  H           -2.9613   -3.7277   -1.4207
                                                        77  H           -3.8606   -2.1952   -3.1755
                                                        79  H           -3.2281   -0.0486   -2.1351
                                                        80  H           -2.0917   -1.3224   -1.6556
                                                        82  H           -5.6415   -0.5509   -2.5832
                                                        83  H           -6.2509   -2.2075   -2.4266
                                                        85  H           -6.8931   -0.8292   -0.4419
                                                        87  H           -5.0076    0.7647   -0.4996
                                                        88  H           -5.1505    0.0160    1.0947
                                                        90  H           -6.4667   -3.2718   -0.1257
                                                        91  H           -6.0006   -2.3582    1.3194
                                                        93  H           -1.5648    1.0692   -2.2124
                                                        94  H           -0.0963    1.1939   -1.2423
                                                        96  H           -1.7576    5.9035   -0.8994
                                                        97  H           -2.5672    5.1690    0.4958
                                                        35  H           -3.7709    2.9251    0.2305
                                                        36  H           -3.7340    2.1057   -1.3413
                                                        38  H           -3.7354    4.5627   -1.6273
                                                        40  H           -1.7569    4.6956   -3.1495
                                                        41  H           -2.5719    3.1300   -3.3089
                                                        43  H           -0.0957    2.8155   -3.1334
                                                        45  H            0.3889    4.8815   -1.8054
                                                        46  H            1.0751    3.4381   -1.0339
                                                        48  H           -0.0935    4.8488    0.6551
                                                        50  H           -0.0972    2.3879    0.9717
                                                        51  H           -1.5809    3.1318    1.5939
                                                        55  H           -3.3306    1.8868    2.1631
                                                        56  H           -3.6785    0.2002    2.5137
                                                        58  H           -0.9922    1.4913    3.2469
                                                        59  H           -2.3904    1.4571    4.3202
                                                        61  H           -2.4122   -1.0707    4.1555
                                                        62  H           -0.9540   -0.9966    3.1687
                                                        64  H           -0.3315   -1.4612    5.5233
                                                        67  C           -3.4469   -0.6991   -0.0713
                                                        68  C           -3.3394   -2.0345    0.6995
                                                        71  C           -4.3198   -3.0662    0.1383
                                                        73  C           -3.9845   -3.3256   -1.3316
                                                        76  C           -4.1078   -2.0181   -2.1159
                                                        78  C           -3.1358   -0.9775   -1.5513
                                                        81  C           -5.5372   -1.4823   -2.0008
                                                        84  C           -5.8669   -1.2230   -0.5286
                                                        86  C           -4.8916   -0.1846    0.0428
                                                        89  C           -5.7477   -2.5292    0.2590
                                                        92  C           -1.0191    1.7264   -1.5207
                                                        95  C           -1.9816    4.9401   -0.4113
                                                        34  C           -3.1413    2.7298   -0.6544
                                                        37  C           -2.7973    4.0516   -1.3538
                                                        39  C           -1.9831    3.7565   -2.6170
                                                        42  C           -0.6858    3.0426   -2.2303
                                                        44  C            0.1302    3.9367   -1.2973
                                                        47  C           -0.6835    4.2227   -0.0350
                                                        49  C           -1.0215    2.9068    0.6718
                                                        52  C           -1.8549    1.9946   -0.2539
                                                        54  C           -2.8570    0.9019    2.3022
                                                        57  C           -1.9000    0.9149    3.4925
                                                        60  C           -1.5007   -0.4724    3.9768
                                                        63  C           -0.6554   -0.4494    5.2389
                                                        53  P           -2.1122    0.3885    0.6842



 =====================================
 S Y M M E T R Y ,   E L E C T R O N S
 =====================================
  
 Symmetry: NOSYM

 Irreducible Representations, including subspecies
 -------------------------------------------------
 A


 Configuration of Valence Electrons
 ==================================
 ( determined in the SCF procedure )

 Total:   436

 Net Charge: 0 (Nuclei minus Electrons)

 Aufbau principle for MO occupations will be applied through SCF cycle no.     150
 Thereafter, the program will assign electrons to MOs that are spatially
 similar to the occupied MOs in a "reference" cycle ("KeepOrbitals").
 The reference cycle is always the PREVIOUS cycle: it will evolve with
 the SCF procedure.
1
 ***************************************************************************************************



                                      ****************************************
                                      *  B U I L D : (Fragments, Functions)  *
                                      ****************************************
  

 The individual fragments are copies of the corresponding 'Master' fragments defined on the fragment files.
 However, they may have been rotated (and translated) with respect to the Master. The local coordinate axes
 of each fragment (which define for instance the spatial orientation in the current molecule of a fragment
 P:x orbital) are not necessarily those of the molecule.
 The local frame (if different from the molecular one) is printed to enable an interpretation of the expan-
 sion of an MO in Fragment Orbitals.



                                         *********************************
                                         *  Fragment Type : pdsubstrate  *
                                         *********************************
  

 Fragment no.    1   (in the list of all fragments)
 -----------------
 The local coordinate frame is identical to the molecular frame.

 Check Atomic Coordinates:

                  Master (on file)          After Computed Tranformation               As specified on Input
           ----------------------------     ----------------------------     ---------------------------------
     1)    -0.17727  -0.84852   0.72920     -0.17727  -0.84852   0.72920       1  -0.17727  -0.84852   0.72920
     2)     1.54581   0.18908   1.04739      1.54581   0.18908   1.04739       2   1.54581   0.18908   1.04739
     3)     1.68421   0.63380   2.37260      1.68421   0.63380   2.37260       3   1.68421   0.63380   2.37260
     4)     2.31816   1.84521   2.61297      2.31816   1.84521   2.61297       5   2.31816   1.84521   2.61297
     5)     2.88201   2.59374   1.56355      2.88201   2.59374   1.56355       7   2.88201   2.59374   1.56355
     6)     2.88419   2.07219   0.26987      2.88419   2.07219   0.26987       8   2.88419   2.07219   0.26987
     7)     2.24879   0.84833   0.01662      2.24879   0.84833   0.01662      10   2.24879   0.84833   0.01662
     8)     2.36467   0.04181  -1.18308      2.36467   0.04181  -1.18308      11   2.36467   0.04181  -1.18308
     9)     2.70443   0.43777  -2.47144      2.70443   0.43777  -2.47144      12   2.70443   0.43777  -2.47144
    10)     2.80647  -0.50167  -3.49195      2.80647  -0.50167  -3.49195      13   2.80647  -0.50167  -3.49195
    11)     2.54839  -1.84726  -3.22368      2.54839  -1.84726  -3.22368      14   2.54839  -1.84726  -3.22368
    12)     2.17758  -2.26491  -1.94517      2.17758  -2.26491  -1.94517      15   2.17758  -2.26491  -1.94517
    13)     2.11164  -1.32721  -0.91621      2.11164  -1.32721  -0.91621      16   2.11164  -1.32721  -0.91621
    14)     4.04444  -1.73943   1.85318      4.04444  -1.73943   1.85318      21   4.04444  -1.73943   1.85318
    15)     3.99742   4.56482   0.89586      3.99742   4.56482   0.89586      30   3.99742   4.56482   0.89586
    16)     1.25448   0.05765   3.19196      1.25448   0.05765   3.19196       4   1.25448   0.05765   3.19196
    17)     2.37669   2.25238   3.62462      2.37669   2.25238   3.62462       6   2.37669   2.25238   3.62462
    18)     3.40979   2.56963  -0.54338      3.40979   2.56963  -0.54338       9   3.40979   2.56963  -0.54338
    19)     4.52163  -2.37106   2.61522      4.52163  -2.37106   2.61522      23   4.52163  -2.37106   2.61522
    20)     3.78046  -0.75763   2.26706      3.78046  -0.75763   2.26706      24   3.78046  -0.75763   2.26706
    21)     3.26132   4.81221   0.10979      3.26132   4.81221   0.10979      31   3.26132   4.81221   0.10979
    22)     4.86374   4.06852   0.42324      4.86374   4.06852   0.42324      32   4.86374   4.06852   0.42324
    23)     4.33834   5.49364   1.37044      4.33834   5.49364   1.37044      33   4.33834   5.49364   1.37044
    24)     1.69640  -1.57899   0.40350      1.69640  -1.57899   0.40350      17   1.69640  -1.57899   0.40350
    25)     2.50519  -2.59815   1.45032      2.50519  -2.59815   1.45032      18   2.50519  -2.59815   1.45032
    26)     1.73442  -2.57623   2.68654      1.73442  -2.57623   2.68654      19   1.73442  -2.57623   2.68654
    27)     2.85548  -3.83619   0.78366      2.85548  -3.83619   0.78366      20   2.85548  -3.83619   0.78366
    28)     3.43128   3.77943   1.90621      3.43128   3.77943   1.90621      29   3.43128   3.77943   1.90621
    29)     5.11225  -1.54920   0.46842      5.11225  -1.54920   0.46842      22   5.11225  -1.54920   0.46842
    30)     1.85123  -3.53001  -1.76884      1.85123  -3.53001  -1.76884      25   1.85123  -3.53001  -1.76884
    31)     2.60310  -2.72526  -4.21085      2.60310  -2.72526  -4.21085      26   2.60310  -2.72526  -4.21085
    32)     3.11840  -0.12735  -4.72214      3.11840  -0.12735  -4.72214      27   3.11840  -0.12735  -4.72214
    33)     2.90966   1.72231  -2.75982      2.90966   1.72231  -2.75982      28   2.90966   1.72231  -2.75982



                                            ****************************
                                            *  Fragment Type : ligand  *
                                            ****************************
  

 Fragment no.    2   (in the list of all fragments)
 -----------------
 The local coordinate frame is identical to the molecular frame.

 Check Atomic Coordinates:

                  Master (on file)          After Computed Tranformation               As specified on Input
           ----------------------------     ----------------------------     ---------------------------------
     1)    -1.21023  -0.01803   6.08783     -1.21023  -0.01803   6.08783      65  -1.21023  -0.01803   6.08783
     2)     0.25258   0.16049   5.10461      0.25258   0.16049   5.10461      66   0.25258   0.16049   5.10461
     3)    -2.30513  -2.42227   0.62650     -2.30513  -2.42227   0.62650      69  -2.30513  -2.42227   0.62650
     4)    -3.53319  -1.87671   1.77383     -3.53319  -1.87671   1.77383      70  -3.53319  -1.87671   1.77383
     5)    -4.22083  -4.00041   0.71479     -4.22083  -4.00041   0.71479      72  -4.22083  -4.00041   0.71479
     6)    -4.66599  -4.08513  -1.75013     -4.66599  -4.08513  -1.75013      74  -4.66599  -4.08513  -1.75013
     7)    -2.96131  -3.72766  -1.42066     -2.96131  -3.72766  -1.42066      75  -2.96131  -3.72766  -1.42066
     8)    -3.86064  -2.19525  -3.17554     -3.86064  -2.19525  -3.17554      77  -3.86064  -2.19525  -3.17554
     9)    -3.22811  -0.04857  -2.13514     -3.22811  -0.04857  -2.13514      79  -3.22811  -0.04857  -2.13514
    10)    -2.09165  -1.32236  -1.65555     -2.09165  -1.32236  -1.65555      80  -2.09165  -1.32236  -1.65555
    11)    -5.64154  -0.55090  -2.58320     -5.64154  -0.55090  -2.58320      82  -5.64154  -0.55090  -2.58320
    12)    -6.25086  -2.20749  -2.42662     -6.25086  -2.20749  -2.42662      83  -6.25086  -2.20749  -2.42662
    13)    -6.89312  -0.82922  -0.44191     -6.89312  -0.82922  -0.44191      85  -6.89312  -0.82922  -0.44191
    14)    -5.00758   0.76469  -0.49965     -5.00758   0.76469  -0.49965      87  -5.00758   0.76469  -0.49965
    15)    -5.15053   0.01602   1.09467     -5.15053   0.01602   1.09467      88  -5.15053   0.01602   1.09467
    16)    -6.46671  -3.27182  -0.12574     -6.46671  -3.27182  -0.12574      90  -6.46671  -3.27182  -0.12574
    17)    -6.00060  -2.35820   1.31939     -6.00060  -2.35820   1.31939      91  -6.00060  -2.35820   1.31939
    18)    -1.56483   1.06923  -2.21236     -1.56483   1.06923  -2.21236      93  -1.56483   1.06923  -2.21236
    19)    -0.09631   1.19388  -1.24226     -0.09631   1.19388  -1.24226      94  -0.09631   1.19388  -1.24226
    20)    -1.75760   5.90350  -0.89944     -1.75760   5.90350  -0.89944      96  -1.75760   5.90350  -0.89944
    21)    -2.56716   5.16901   0.49578     -2.56716   5.16901   0.49578      97  -2.56716   5.16901   0.49578
    22)    -3.77094   2.92511   0.23051     -3.77094   2.92511   0.23051      35  -3.77094   2.92511   0.23051
    23)    -3.73402   2.10568  -1.34126     -3.73402   2.10568  -1.34126      36  -3.73402   2.10568  -1.34126
    24)    -3.73535   4.56273  -1.62735     -3.73535   4.56273  -1.62735      38  -3.73535   4.56273  -1.62735
    25)    -1.75693   4.69562  -3.14953     -1.75693   4.69562  -3.14953      40  -1.75693   4.69562  -3.14953
    26)    -2.57192   3.13000  -3.30887     -2.57192   3.13000  -3.30887      41  -2.57192   3.13000  -3.30887
    27)    -0.09567   2.81554  -3.13341     -0.09567   2.81554  -3.13341      43  -0.09567   2.81554  -3.13341
    28)     0.38895   4.88149  -1.80543      0.38895   4.88149  -1.80543      45   0.38895   4.88149  -1.80543
    29)     1.07505   3.43809  -1.03394      1.07505   3.43809  -1.03394      46   1.07505   3.43809  -1.03394
    30)    -0.09351   4.84879   0.65508     -0.09351   4.84879   0.65508      48  -0.09351   4.84879   0.65508
    31)    -0.09722   2.38789   0.97175     -0.09722   2.38789   0.97175      50  -0.09722   2.38789   0.97175
    32)    -1.58085   3.13177   1.59393     -1.58085   3.13177   1.59393      51  -1.58085   3.13177   1.59393
    33)    -3.33058   1.88675   2.16314     -3.33058   1.88675   2.16314      55  -3.33058   1.88675   2.16314
    34)    -3.67847   0.20024   2.51373     -3.67847   0.20024   2.51373      56  -3.67847   0.20024   2.51373
    35)    -0.99221   1.49131   3.24687     -0.99221   1.49131   3.24687      58  -0.99221   1.49131   3.24687
    36)    -2.39043   1.45711   4.32024     -2.39043   1.45711   4.32024      59  -2.39043   1.45711   4.32024
    37)    -2.41219  -1.07067   4.15554     -2.41219  -1.07067   4.15554      61  -2.41219  -1.07067   4.15554
    38)    -0.95396  -0.99656   3.16870     -0.95396  -0.99656   3.16870      62  -0.95396  -0.99656   3.16870
    39)    -0.33151  -1.46116   5.52328     -0.33151  -1.46116   5.52328      64  -0.33151  -1.46116   5.52328
    40)    -3.44693  -0.69906  -0.07134     -3.44693  -0.69906  -0.07134      67  -3.44693  -0.69906  -0.07134
    41)    -3.33945  -2.03454   0.69950     -3.33945  -2.03454   0.69950      68  -3.33945  -2.03454   0.69950
    42)    -4.31984  -3.06620   0.13830     -4.31984  -3.06620   0.13830      71  -4.31984  -3.06620   0.13830
    43)    -3.98453  -3.32560  -1.33162     -3.98453  -3.32560  -1.33162      73  -3.98453  -3.32560  -1.33162
    44)    -4.10779  -2.01814  -2.11591     -4.10779  -2.01814  -2.11591      76  -4.10779  -2.01814  -2.11591
    45)    -3.13579  -0.97747  -1.55133     -3.13579  -0.97747  -1.55133      78  -3.13579  -0.97747  -1.55133
    46)    -5.53715  -1.48234  -2.00081     -5.53715  -1.48234  -2.00081      81  -5.53715  -1.48234  -2.00081
    47)    -5.86685  -1.22302  -0.52865     -5.86685  -1.22302  -0.52865      84  -5.86685  -1.22302  -0.52865
    48)    -4.89164  -0.18463   0.04280     -4.89164  -0.18463   0.04280      86  -4.89164  -0.18463   0.04280
    49)    -5.74772  -2.52916   0.25905     -5.74772  -2.52916   0.25905      89  -5.74772  -2.52916   0.25905
    50)    -1.01914   1.72636  -1.52069     -1.01914   1.72636  -1.52069      92  -1.01914   1.72636  -1.52069
    51)    -1.98163   4.94005  -0.41126     -1.98163   4.94005  -0.41126      95  -1.98163   4.94005  -0.41126
    52)    -3.14133   2.72982  -0.65443     -3.14133   2.72982  -0.65443      34  -3.14133   2.72982  -0.65443
    53)    -2.79725   4.05164  -1.35375     -2.79725   4.05164  -1.35375      37  -2.79725   4.05164  -1.35375
    54)    -1.98307   3.75647  -2.61702     -1.98307   3.75647  -2.61702      39  -1.98307   3.75647  -2.61702
    55)    -0.68582   3.04256  -2.23030     -0.68582   3.04256  -2.23030      42  -0.68582   3.04256  -2.23030
    56)     0.13016   3.93671  -1.29734      0.13016   3.93671  -1.29734      44   0.13016   3.93671  -1.29734
    57)    -0.68345   4.22269  -0.03498     -0.68345   4.22269  -0.03498      47  -0.68345   4.22269  -0.03498
    58)    -1.02155   2.90679   0.67180     -1.02155   2.90679   0.67180      49  -1.02155   2.90679   0.67180
    59)    -1.85495   1.99464  -0.25392     -1.85495   1.99464  -0.25392      52  -1.85495   1.99464  -0.25392
    60)    -2.85702   0.90193   2.30215     -2.85702   0.90193   2.30215      54  -2.85702   0.90193   2.30215
    61)    -1.89997   0.91486   3.49252     -1.89997   0.91486   3.49252      57  -1.89997   0.91486   3.49252
    62)    -1.50070  -0.47245   3.97676     -1.50070  -0.47245   3.97676      60  -1.50070  -0.47245   3.97676
    63)    -0.65537  -0.44937   5.23888     -0.65537  -0.44937   5.23888      63  -0.65537  -0.44937   5.23888
    64)    -2.11217   0.38851   0.68422     -2.11217   0.38851   0.68422      53  -2.11217   0.38851   0.68422

 Total nr. of (C)SFOs (summation over all irreps) :  1303

 Specify PRINT SFO in the input file to get a full list

 Nr. of SFOs for ir.rep.           A :  1303



 ================================
 (Slater-type)  F U N C T I O N S  ***  (Basis and Fit)  ***
 ================================
  

 Atom Type    1  (Pd)
 ==============

 Valence Basis Sets:  26
 -----------------------
   1 S  306.000000
   1 S   76.400000
   1 S   45.900000
   2 S   53.800000
   2 S   19.550000
   3 S   10.150000
   3 S    6.650000
   4 S    6.150000
   4 S    3.900000
   5 S    2.500000
   5 S    1.450000
   5 S    0.850000
   2 P   29.100000
   2 P   18.750000
   3 P   11.250000
   3 P    8.100000
   4 P    5.950000
   4 P    3.950000
   4 P    2.700000
   3 D   17.550000
   3 D   10.450000
   3 D    6.900000
   4 D    4.250000
   4 D    2.200000
   4 D    1.100000
   5 P    1.450000

 Charge Fitting Sets (for the computation of the Coulomb Potential):  58
 -----------------------------------------------------------------------
   1 S  612.000000
   1 S  446.101000
   1 S  325.174000
   1 S  237.027000
   1 S  172.774000
   1 S  125.939000
   1 S   91.800000
   1 S   53.670000
   2 S   58.190000
   2 S   38.430000
   3 S   37.300000
   3 S   26.280000
   4 S   24.500000
   4 S   18.000000
   5 S   16.470000
   5 S   12.460000
   6 S   11.300000
   6 S    8.740000
   7 S    7.890000
   7 S    6.210000
   8 S    5.590000
   8 S    4.470000
   8 S    3.570000
   9 S    3.210000
   9 S    2.600000
   9 S    2.100000
   9 S    1.700000
   2 P   64.650000
   3 P   49.410000
   4 P   37.530000
   5 P   28.620000
   6 P   21.980000
   6 P   14.500000
   7 P   11.220000
   7 P    7.620000
   8 P    5.940000
   8 P    4.130000
   9 P    3.240000
   9 P    2.300000
   3 D   56.350000
   4 D   37.260000
   5 D   25.120000
   6 D   17.230000
   6 D   10.190000
   7 D    7.110000
   7 D    4.360000
   8 D    3.090000
   8 D    1.950000
   4 F   47.900000
   5 F   28.270000
   6 F   17.190000
   6 F    9.040000
   7 F    5.640000
   7 F    3.100000
   5 G   20.900000
   6 G    9.980000
   7 G    4.980000
   7 G    2.200000

 Atom Type    2  (C)
 ==============

 Valence Basis Sets:   9
 -----------------------
   1 S    7.680000
   1 S    5.000000
   2 S    1.280000
   2 S    2.100000
   2 S    4.600000
   2 P    0.820000
   2 P    1.480000
   2 P    2.940000
   3 D    2.200000

 Charge Fitting Sets (for the computation of the Coulomb Potential):  22
 -----------------------------------------------------------------------
   1 S   15.360000
   2 S   17.530000
   2 S   12.070000
   2 S    8.310000
   2 S    5.730000
   3 S    5.780000
   3 S    4.220000
   3 S    3.080000
   3 S    2.250000
   3 S    1.640000
   2 P    9.880000
   2 P    5.800000
   3 P    5.050000
   3 P    3.230000
   3 P    2.060000
   3 D    7.200000
   3 D    4.400000
   3 D    2.690000
   3 D    1.640000
   4 F    5.400000
   4 F    3.550000
   5 G    4.500000

 Atom Type    3  (H)
 ==============

 Valence Basis Sets:   4
 -----------------------
   1 S    0.690000
   1 S    0.920000
   1 S    1.580000
   2 P    1.250000

 Charge Fitting Sets (for the computation of the Coulomb Potential):  11
 -----------------------------------------------------------------------
   1 S    3.160000
   1 S    2.090000
   1 S    1.380000
   2 S    1.500000
   2 P    4.000000
   2 P    2.650000
   2 P    1.750000
   3 D    4.000000
   3 D    2.500000
   4 F    3.000000
   5 G    4.000000

 Atom Type    4  (N)
 ==============

 Valence Basis Sets:   9
 -----------------------
   1 S    8.740000
   1 S    5.900000
   2 S    5.150000
   2 S    2.500000
   2 S    1.500000
   2 P    3.680000
   2 P    1.880000
   2 P    1.000000
   3 D    2.200000

 Charge Fitting Sets (for the computation of the Coulomb Potential):  22
 -----------------------------------------------------------------------
   1 S   17.480000
   2 S   20.150000
   2 S   13.990000
   2 S    9.710000
   2 S    6.740000
   3 S    6.860000
   3 S    5.040000
   3 S    3.700000
   3 S    2.720000
   3 S    2.000000
   2 P   11.320000
   2 P    6.730000
   3 P    5.920000
   3 P    3.820000
   3 P    2.460000
   3 D    8.100000
   3 D    5.080000
   3 D    3.190000
   3 D    2.000000
   4 F    5.800000
   4 F    3.600000
   5 G    4.500000

 Atom Type    5  (S)
 ==============

 Valence Basis Sets:  13
 -----------------------
   1 S   19.400000
   1 S   14.350000
   2 S    5.900000
   2 S    4.250000
   2 P    8.050000
   2 P    4.550000
   3 S    3.450000
   3 S    2.250000
   3 S    1.500000
   3 P    2.650000
   3 P    1.600000
   3 P    1.000000
   3 D    2.100000

 Charge Fitting Sets (for the computation of the Coulomb Potential):  30
 -----------------------------------------------------------------------
   1 S   38.800000
   1 S   23.350000
   2 S   26.020000
   2 S   17.570000
   3 S   17.420000
   3 S   12.500000
   3 S    8.980000
   4 S    8.520000
   4 S    6.360000
   4 S    4.750000
   5 S    4.420000
   5 S    3.390000
   5 S    2.600000
   5 S    2.000000
   2 P   27.450000
   3 P   20.250000
   4 P   14.920000
   4 P    8.780000
   5 P    6.520000
   5 P    4.040000
   5 P    2.500000
   3 D   20.900000
   4 D   14.560000
   4 D    8.130000
   5 D    5.740000
   5 D    3.390000
   5 D    2.000000
   4 F    5.000000
   4 F    3.000000
   5 G    3.620000

 Atom Type    6  (O)
 ==============

 Valence Basis Sets:   9
 -----------------------
   1 S    9.800000
   1 S    6.800000
   2 S    7.580000
   2 S    2.880000
   2 S    1.720000
   2 P    4.080000
   2 P    2.080000
   2 P    1.120000
   3 D    2.000000

 Charge Fitting Sets (for the computation of the Coulomb Potential):  22
 -----------------------------------------------------------------------
   1 S   19.600000
   2 S   22.600000
   2 S   15.680000
   2 S   10.890000
   2 S    7.560000
   3 S    7.690000
   3 S    5.650000
   3 S    4.150000
   3 S    3.050000
   3 S    2.240000
   2 P   12.860000
   2 P    7.680000
   3 P    6.780000
   3 P    4.390000
   3 P    2.840000
   3 D    8.800000
   3 D    5.580000
   3 D    3.530000
   3 D    2.240000
   4 F    6.200000
   4 F    3.700000
   5 G    4.500000

 Atom Type    7  (Cl)
 ==============

 Valence Basis Sets:  13
 -----------------------
   1 S   20.300000
   1 S   15.250000
   2 S    6.250000
   2 S    4.450000
   2 P    8.850000
   2 P    5.050000
   3 S    3.450000
   3 S    2.300000
   3 S    1.600000
   3 P    3.350000
   3 P    2.050000
   3 P    1.200000
   3 D    2.000000

 Charge Fitting Sets (for the computation of the Coulomb Potential):  30
 -----------------------------------------------------------------------
   1 S   40.600000
   1 S   24.830000
   2 S   28.080000
   2 S   19.200000
   3 S   19.250000
   3 S   13.970000
   3 S   10.130000
   4 S    9.710000
   4 S    7.320000
   4 S    5.510000
   5 S    5.170000
   5 S    4.000000
   5 S    3.100000
   5 S    2.400000
   2 P   29.150000
   3 P   21.740000
   4 P   16.160000
   4 P    9.600000
   5 P    7.180000
   5 P    4.480000
   5 P    2.800000
   3 D   21.950000
   4 D   15.750000
   4 D    9.040000
   5 D    6.550000
   5 D    3.960000
   5 D    2.400000
   4 F    5.000000
   4 F    3.000000
   5 G    3.500000

 Atom Type    8  (F)
 ==============

 Valence Basis Sets:   9
 -----------------------
   1 S   10.880000
   1 S    7.700000
   2 S    3.240000
   2 S    1.940000
   2 S    0.740000
   2 P    4.540000
   2 P    2.300000
   2 P    1.240000
   3 D    2.000000

 Charge Fitting Sets (for the computation of the Coulomb Potential):  23
 -----------------------------------------------------------------------
   1 S   21.760000
   2 S   24.390000
   2 S   16.560000
   2 S   11.240000
   2 S    7.630000
   3 S    7.600000
   3 S    5.480000
   3 S    3.950000
   3 S    2.850000
   3 S    2.050000
   3 S    1.480000
   2 P   14.400000
   2 P    7.530000
   3 P    5.900000
   3 P    3.420000
   3 P    1.980000
   3 D    9.700000
   3 D    6.160000
   3 D    3.910000
   3 D    2.480000
   4 F    6.500000
   4 F    3.750000
   5 G    4.500000

 Atom Type    9  (H)
 ==============

 Valence Basis Sets:   4
 -----------------------
   1 S    0.690000
   1 S    0.920000
   1 S    1.580000
   2 P    1.250000

 Charge Fitting Sets (for the computation of the Coulomb Potential):  11
 -----------------------------------------------------------------------
   1 S    3.160000
   1 S    2.090000
   1 S    1.380000
   2 S    1.500000
   2 P    4.000000
   2 P    2.650000
   2 P    1.750000
   3 D    4.000000
   3 D    2.500000
   4 F    3.000000
   5 G    4.000000

 Atom Type   10  (C)
 ==============

 Valence Basis Sets:   9
 -----------------------
   1 S    7.680000
   1 S    5.000000
   2 S    1.280000
   2 S    2.100000
   2 S    4.600000
   2 P    0.820000
   2 P    1.480000
   2 P    2.940000
   3 D    2.200000

 Charge Fitting Sets (for the computation of the Coulomb Potential):  22
 -----------------------------------------------------------------------
   1 S   15.360000
   2 S   17.530000
   2 S   12.070000
   2 S    8.310000
   2 S    5.730000
   3 S    5.780000
   3 S    4.220000
   3 S    3.080000
   3 S    2.250000
   3 S    1.640000
   2 P    9.880000
   2 P    5.800000
   3 P    5.050000
   3 P    3.230000
   3 P    2.060000
   3 D    7.200000
   3 D    4.400000
   3 D    2.690000
   3 D    1.640000
   4 F    5.400000
   4 F    3.550000
   5 G    4.500000

 Atom Type   11  (P)
 ==============

 Valence Basis Sets:  13
 -----------------------
   1 S   18.000000
   1 S   13.350000
   2 S    5.600000
   2 S    4.050000
   2 P    7.450000
   2 P    4.100000
   3 S    2.700000
   3 S    1.850000
   3 S    1.300000
   3 P    2.300000
   3 P    1.350000
   3 P    0.850000
   3 D    1.900000

 Charge Fitting Sets (for the computation of the Coulomb Potential):  30
 -----------------------------------------------------------------------
   1 S   36.000000
   1 S   21.450000
   2 S   23.670000
   2 S   15.860000
   3 S   15.600000
   3 S   11.130000
   3 S    7.940000
   4 S    7.490000
   4 S    5.560000
   4 S    4.130000
   5 S    3.810000
   5 S    2.910000
   5 S    2.230000
   5 S    1.700000
   2 P   25.450000
   3 P   18.490000
   4 P   13.440000
   4 P    7.810000
   5 P    5.730000
   5 P    3.510000
   5 P    2.150000
   3 D   19.350000
   4 D   13.230000
   4 D    7.250000
   5 D    5.040000
   5 D    2.930000
   5 D    1.700000
   4 F    5.000000
   4 F    3.000000
   5 G    3.750000


 BAS: List of all Elementary Cartesian Basis Functions
 =====================================================

 The numbering in the list below (to the right of the function characteristics) is referred
 to in print-outs of MO eigenvectors and Mulliken populations in the BAS representation
 (as contrasted to the SFO representation).

 Notes:
 1. The functions are characterized by a polynomial prefactor (powers of x,y,z and r) and
    an exponential decay factor alpha.
 2. Since the basis sets are specific for an atom TYPE, the individual functions occur on
    all atoms of that type.
 3. The word 'Core' in the left margin signals that it is a Core Function (CF) : not a
    degree of freedom in the valence set, but only used to ensure orthogonalization of
    the other valence basis functions on the frozen Core Orbitals.


 (power of) X  Y  Z  R     Alpha  on Atom
            ==========     =====     ==========

 Pd                                   1
                                  ---------------------------------------------------------------------------
            0  0  0  0   306.000      1
            0  0  0  0    76.400      2
            0  0  0  0    45.900      3
            0  0  0  1    53.800      4
            0  0  0  1    19.550      5
            0  0  0  2    10.150      6
            0  0  0  2     6.650      7
            0  0  0  3     6.150      8
            0  0  0  3     3.900      9
            0  0  0  4     2.500     10
            0  0  0  4     1.450     11
            0  0  0  4     0.850     12
            1  0  0  0    29.100     13
            0  1  0  0    29.100     14
            0  0  1  0    29.100     15
            1  0  0  0    18.750     16
            0  1  0  0    18.750     17
            0  0  1  0    18.750     18
            1  0  0  1    11.250     19
            0  1  0  1    11.250     20
            0  0  1  1    11.250     21
            1  0  0  1     8.100     22
            0  1  0  1     8.100     23
            0  0  1  1     8.100     24
            1  0  0  2     5.950     25
            0  1  0  2     5.950     26
            0  0  1  2     5.950     27
            1  0  0  2     3.950     28
            0  1  0  2     3.950     29
            0  0  1  2     3.950     30
            1  0  0  2     2.700     31
            0  1  0  2     2.700     32
            0  0  1  2     2.700     33
            2  0  0  0    17.550     34
            1  1  0  0    17.550     35
            1  0  1  0    17.550     36
            0  2  0  0    17.550     37
            0  1  1  0    17.550     38
            0  0  2  0    17.550     39
            2  0  0  0    10.450     40
            1  1  0  0    10.450     41
            1  0  1  0    10.450     42
            0  2  0  0    10.450     43
            0  1  1  0    10.450     44
            0  0  2  0    10.450     45
            2  0  0  0     6.900     46
            1  1  0  0     6.900     47
            1  0  1  0     6.900     48
            0  2  0  0     6.900     49
            0  1  1  0     6.900     50
            0  0  2  0     6.900     51
            2  0  0  1     4.250     52
            1  1  0  1     4.250     53
            1  0  1  1     4.250     54
            0  2  0  1     4.250     55
            0  1  1  1     4.250     56
            0  0  2  1     4.250     57
            2  0  0  1     2.200     58
            1  1  0  1     2.200     59
            1  0  1  1     2.200     60
            0  2  0  1     2.200     61
            0  1  1  1     2.200     62
            0  0  2  1     2.200     63
            2  0  0  1     1.100     64
            1  1  0  1     1.100     65
            1  0  1  1     1.100     66
            0  2  0  1     1.100     67
            0  1  1  1     1.100     68
            0  0  2  1     1.100     69
            1  0  0  3     1.450     70
            0  1  0  3     1.450     71
            0  0  1  3     1.450     72

 C                                    2    3    4    5    6    7    8    9   10   11   12   13   14   15
                                  ---------------------------------------------------------------------------
            0  0  0  0     7.680     73   93  113  133  153  173  193  213  233  253  273  293  313  333
            0  0  0  0     5.000     74   94  114  134  154  174  194  214  234  254  274  294  314  334
            0  0  0  1     1.280     75   95  115  135  155  175  195  215  235  255  275  295  315  335
            0  0  0  1     2.100     76   96  116  136  156  176  196  216  236  256  276  296  316  336
            0  0  0  1     4.600     77   97  117  137  157  177  197  217  237  257  277  297  317  337
            1  0  0  0     0.820     78   98  118  138  158  178  198  218  238  258  278  298  318  338
            0  1  0  0     0.820     79   99  119  139  159  179  199  219  239  259  279  299  319  339
            0  0  1  0     0.820     80  100  120  140  160  180  200  220  240  260  280  300  320  340
            1  0  0  0     1.480     81  101  121  141  161  181  201  221  241  261  281  301  321  341
            0  1  0  0     1.480     82  102  122  142  162  182  202  222  242  262  282  302  322  342
            0  0  1  0     1.480     83  103  123  143  163  183  203  223  243  263  283  303  323  343
            1  0  0  0     2.940     84  104  124  144  164  184  204  224  244  264  284  304  324  344
            0  1  0  0     2.940     85  105  125  145  165  185  205  225  245  265  285  305  325  345
            0  0  1  0     2.940     86  106  126  146  166  186  206  226  246  266  286  306  326  346
            2  0  0  0     2.200     87  107  127  147  167  187  207  227  247  267  287  307  327  347
            1  1  0  0     2.200     88  108  128  148  168  188  208  228  248  268  288  308  328  348
            1  0  1  0     2.200     89  109  129  149  169  189  209  229  249  269  289  309  329  349
            0  2  0  0     2.200     90  110  130  150  170  190  210  230  250  270  290  310  330  350
            0  1  1  0     2.200     91  111  131  151  171  191  211  231  251  271  291  311  331  351
            0  0  2  0     2.200     92  112  132  152  172  192  212  232  252  272  292  312  332  352

 H                                   16   17   18   19   20   21   22   23
                                  ---------------------------------------------------------------------------
            0  0  0  0     0.690    353  359  365  371  377  383  389  395
            0  0  0  0     0.920    354  360  366  372  378  384  390  396
            0  0  0  0     1.580    355  361  367  373  379  385  391  397
            1  0  0  0     1.250    356  362  368  374  380  386  392  398
            0  1  0  0     1.250    357  363  369  375  381  387  393  399
            0  0  1  0     1.250    358  364  370  376  382  388  394  400

 N                                   24
                                  ---------------------------------------------------------------------------
            0  0  0  0     8.740    401
            0  0  0  0     5.900    402
            0  0  0  1     5.150    403
            0  0  0  1     2.500    404
            0  0  0  1     1.500    405
            1  0  0  0     3.680    406
            0  1  0  0     3.680    407
            0  0  1  0     3.680    408
            1  0  0  0     1.880    409
            0  1  0  0     1.880    410
            0  0  1  0     1.880    411
            1  0  0  0     1.000    412
            0  1  0  0     1.000    413
            0  0  1  0     1.000    414
            2  0  0  0     2.200    415
            1  1  0  0     2.200    416
            1  0  1  0     2.200    417
            0  2  0  0     2.200    418
            0  1  1  0     2.200    419
            0  0  2  0     2.200    420

 S                                   25
                                  ---------------------------------------------------------------------------
            0  0  0  0    19.400    421
            0  0  0  0    14.350    422
            0  0  0  1     5.900    423
            0  0  0  1     4.250    424
            1  0  0  0     8.050    425
            0  1  0  0     8.050    426
            0  0  1  0     8.050    427
            1  0  0  0     4.550    428
            0  1  0  0     4.550    429
            0  0  1  0     4.550    430
            0  0  0  2     3.450    431
            0  0  0  2     2.250    432
            0  0  0  2     1.500    433
            1  0  0  1     2.650    434
            0  1  0  1     2.650    435
            0  0  1  1     2.650    436
            1  0  0  1     1.600    437
            0  1  0  1     1.600    438
            0  0  1  1     1.600    439
            1  0  0  1     1.000    440
            0  1  0  1     1.000    441
            0  0  1  1     1.000    442
            2  0  0  0     2.100    443
            1  1  0  0     2.100    444
            1  0  1  0     2.100    445
            0  2  0  0     2.100    446
            0  1  1  0     2.100    447
            0  0  2  0     2.100    448

 O                                   26   27   28
                                  ---------------------------------------------------------------------------
            0  0  0  0     9.800    449  469  489
            0  0  0  0     6.800    450  470  490
            0  0  0  1     7.580    451  471  491
            0  0  0  1     2.880    452  472  492
            0  0  0  1     1.720    453  473  493
            1  0  0  0     4.080    454  474  494
            0  1  0  0     4.080    455  475  495
            0  0  1  0     4.080    456  476  496
            1  0  0  0     2.080    457  477  497
            0  1  0  0     2.080    458  478  498
            0  0  1  0     2.080    459  479  499
            1  0  0  0     1.120    460  480  500
            0  1  0  0     1.120    461  481  501
            0  0  1  0     1.120    462  482  502
            2  0  0  0     2.000    463  483  503
            1  1  0  0     2.000    464  484  504
            1  0  1  0     2.000    465  485  505
            0  2  0  0     2.000    466  486  506
            0  1  1  0     2.000    467  487  507
            0  0  2  0     2.000    468  488  508

 Cl                                  29
                                  ---------------------------------------------------------------------------
            0  0  0  0    20.300    509
            0  0  0  0    15.250    510
            0  0  0  1     6.250    511
            0  0  0  1     4.450    512
            1  0  0  0     8.850    513
            0  1  0  0     8.850    514
            0  0  1  0     8.850    515
            1  0  0  0     5.050    516
            0  1  0  0     5.050    517
            0  0  1  0     5.050    518
            0  0  0  2     3.450    519
            0  0  0  2     2.300    520
            0  0  0  2     1.600    521
            1  0  0  1     3.350    522
            0  1  0  1     3.350    523
            0  0  1  1     3.350    524
            1  0  0  1     2.050    525
            0  1  0  1     2.050    526
            0  0  1  1     2.050    527
            1  0  0  1     1.200    528
            0  1  0  1     1.200    529
            0  0  1  1     1.200    530
            2  0  0  0     2.000    531
            1  1  0  0     2.000    532
            1  0  1  0     2.000    533
            0  2  0  0     2.000    534
            0  1  1  0     2.000    535
            0  0  2  0     2.000    536

 F                                   30   31   32   33
                                  ---------------------------------------------------------------------------
            0  0  0  0    10.880    537  557  577  597
            0  0  0  0     7.700    538  558  578  598
            0  0  0  1     3.240    539  559  579  599
            0  0  0  1     1.940    540  560  580  600
            0  0  0  1     0.740    541  561  581  601
            1  0  0  0     4.540    542  562  582  602
            0  1  0  0     4.540    543  563  583  603
            0  0  1  0     4.540    544  564  584  604
            1  0  0  0     2.300    545  565  585  605
            0  1  0  0     2.300    546  566  586  606
            0  0  1  0     2.300    547  567  587  607
            1  0  0  0     1.240    548  568  588  608
            0  1  0  0     1.240    549  569  589  609
            0  0  1  0     1.240    550  570  590  610
            2  0  0  0     2.000    551  571  591  611
            1  1  0  0     2.000    552  572  592  612
            1  0  1  0     2.000    553  573  593  613
            0  2  0  0     2.000    554  574  594  614
            0  1  1  0     2.000    555  575  595  615
            0  0  2  0     2.000    556  576  596  616

 H                                   34   35   36   37   38   39   40   41   42   43   44   45   46   47   48
                                     49   50   51   52   53   54   55   56   57   58   59   60   61   62   63
                                     64   65   66   67   68   69   70   71   72
                                  ---------------------------------------------------------------------------
            0  0  0  0     0.690    617  623  629  635  641  647  653  659  665  671  677  683  689  695  701
                                    707  713  719  725  731  737  743  749  755  761  767  773  779  785  791
                                    797  803  809  815  821  827  833  839  845
            0  0  0  0     0.920    618  624  630  636  642  648  654  660  666  672  678  684  690  696  702
                                    708  714  720  726  732  738  744  750  756  762  768  774  780  786  792
                                    798  804  810  816  822  828  834  840  846
            0  0  0  0     1.580    619  625  631  637  643  649  655  661  667  673  679  685  691  697  703
                                    709  715  721  727  733  739  745  751  757  763  769  775  781  787  793
                                    799  805  811  817  823  829  835  841  847
            1  0  0  0     1.250    620  626  632  638  644  650  656  662  668  674  680  686  692  698  704
                                    710  716  722  728  734  740  746  752  758  764  770  776  782  788  794
                                    800  806  812  818  824  830  836  842  848
            0  1  0  0     1.250    621  627  633  639  645  651  657  663  669  675  681  687  693  699  705
                                    711  717  723  729  735  741  747  753  759  765  771  777  783  789  795
                                    801  807  813  819  825  831  837  843  849
            0  0  1  0     1.250    622  628  634  640  646  652  658  664  670  676  682  688  694  700  706
                                    712  718  724  730  736  742  748  754  760  766  772  778  784  790  796
                                    802  808  814  820  826  832  838  844  850

 C                                   73   74   75   76   77   78   79   80   81   82   83   84   85   86   87
                                     88   89   90   91   92   93   94   95   96
                                  ---------------------------------------------------------------------------
            0  0  0  0     7.680    851  871  891  911  931  951  971  991 1011 1031 1051 1071 1091 1111 1131
                                   1151 1171 1191 1211 1231 1251 1271 1291 1311
            0  0  0  0     5.000    852  872  892  912  932  952  972  992 1012 1032 1052 1072 1092 1112 1132
                                   1152 1172 1192 1212 1232 1252 1272 1292 1312
            0  0  0  1     1.280    853  873  893  913  933  953  973  993 1013 1033 1053 1073 1093 1113 1133
                                   1153 1173 1193 1213 1233 1253 1273 1293 1313
            0  0  0  1     2.100    854  874  894  914  934  954  974  994 1014 1034 1054 1074 1094 1114 1134
                                   1154 1174 1194 1214 1234 1254 1274 1294 1314
            0  0  0  1     4.600    855  875  895  915  935  955  975  995 1015 1035 1055 1075 1095 1115 1135
                                   1155 1175 1195 1215 1235 1255 1275 1295 1315
            1  0  0  0     0.820    856  876  896  916  936  956  976  996 1016 1036 1056 1076 1096 1116 1136
                                   1156 1176 1196 1216 1236 1256 1276 1296 1316
            0  1  0  0     0.820    857  877  897  917  937  957  977  997 1017 1037 1057 1077 1097 1117 1137
                                   1157 1177 1197 1217 1237 1257 1277 1297 1317
            0  0  1  0     0.820    858  878  898  918  938  958  978  998 1018 1038 1058 1078 1098 1118 1138
                                   1158 1178 1198 1218 1238 1258 1278 1298 1318
            1  0  0  0     1.480    859  879  899  919  939  959  979  999 1019 1039 1059 1079 1099 1119 1139
                                   1159 1179 1199 1219 1239 1259 1279 1299 1319
            0  1  0  0     1.480    860  880  900  920  940  960  980 1000 1020 1040 1060 1080 1100 1120 1140
                                   1160 1180 1200 1220 1240 1260 1280 1300 1320
            0  0  1  0     1.480    861  881  901  921  941  961  981 1001 1021 1041 1061 1081 1101 1121 1141
                                   1161 1181 1201 1221 1241 1261 1281 1301 1321
            1  0  0  0     2.940    862  882  902  922  942  962  982 1002 1022 1042 1062 1082 1102 1122 1142
                                   1162 1182 1202 1222 1242 1262 1282 1302 1322
            0  1  0  0     2.940    863  883  903  923  943  963  983 1003 1023 1043 1063 1083 1103 1123 1143
                                   1163 1183 1203 1223 1243 1263 1283 1303 1323
            0  0  1  0     2.940    864  884  904  924  944  964  984 1004 1024 1044 1064 1084 1104 1124 1144
                                   1164 1184 1204 1224 1244 1264 1284 1304 1324
            2  0  0  0     2.200    865  885  905  925  945  965  985 1005 1025 1045 1065 1085 1105 1125 1145
                                   1165 1185 1205 1225 1245 1265 1285 1305 1325
            1  1  0  0     2.200    866  886  906  926  946  966  986 1006 1026 1046 1066 1086 1106 1126 1146
                                   1166 1186 1206 1226 1246 1266 1286 1306 1326
            1  0  1  0     2.200    867  887  907  927  947  967  987 1007 1027 1047 1067 1087 1107 1127 1147
                                   1167 1187 1207 1227 1247 1267 1287 1307 1327
            0  2  0  0     2.200    868  888  908  928  948  968  988 1008 1028 1048 1068 1088 1108 1128 1148
                                   1168 1188 1208 1228 1248 1268 1288 1308 1328
            0  1  1  0     2.200    869  889  909  929  949  969  989 1009 1029 1049 1069 1089 1109 1129 1149
                                   1169 1189 1209 1229 1249 1269 1289 1309 1329
            0  0  2  0     2.200    870  890  910  930  950  970  990 1010 1030 1050 1070 1090 1110 1130 1150
                                   1170 1190 1210 1230 1250 1270 1290 1310 1330

 P                                   97
                                  ---------------------------------------------------------------------------
            0  0  0  0    18.000   1331
            0  0  0  0    13.350   1332
            0  0  0  1     5.600   1333
            0  0  0  1     4.050   1334
            1  0  0  0     7.450   1335
            0  1  0  0     7.450   1336
            0  0  1  0     7.450   1337
            1  0  0  0     4.100   1338
            0  1  0  0     4.100   1339
            0  0  1  0     4.100   1340
            0  0  0  2     2.700   1341
            0  0  0  2     1.850   1342
            0  0  0  2     1.300   1343
            1  0  0  1     2.300   1344
            0  1  0  1     2.300   1345
            0  0  1  1     2.300   1346
            1  0  0  1     1.350   1347
            0  1  0  1     1.350   1348
            0  0  1  1     1.350   1349
            1  0  0  1     0.850   1350
            0  1  0  1     0.850   1351
            0  0  1  1     0.850   1352
            2  0  0  0     1.900   1353
            1  1  0  0     1.900   1354
            1  0  1  0     1.900   1355
            0  2  0  0     1.900   1356
            0  1  1  0     1.900   1357
            0  0  2  0     1.900   1358

 Total number of charge fitting functions (nprimf)      6773
 Total number of Cartesian basis functions (naos)       1358
 Total number of Cartesian core functions  (ncos)          0

1
 ***************************************************************************************************



                                              ***********************
                                              *  T E C H N I C A L  *
                                              ***********************
  



 =============================================================
 P A R A L L E L I Z A T I O N  and  V E C T O R I Z A T I O N
 =============================================================
  
 Nr of parallel processes:                               16
 Maximum vector length in NumInt loops:                 128



 =====================
 S C F   U P D A T E S
 =====================
  
 Max. nr. of cycles:                               300
 Convergence criterion:                              0.0000010000
   secondary criterion:                              0.0010000000

[...]
     450       15.8046         0.000       
     449       15.7814         0.000       
     448       15.6869         0.000       
     447       15.6428         0.000       
     446       15.5931         0.000       
     445       15.4828         0.000       
     444       15.4373         0.000       
     443       15.3440         0.000       
     442       15.2905         0.000       
     441       15.2599         0.000       
     440       15.1964         0.000       
     439       15.1281         0.000       
     438       15.0939         0.000       
     437       14.9441         0.000       
     436       14.9125         0.000       
     435       14.8100         0.000       
     434       14.7052         0.000       
     433       14.5773         0.000       
     432       14.5394         0.000       
     431       14.4606         0.000       
     430       14.3894         0.000       
     429       14.3787         0.000       
     428       14.3053         0.000       
     427       14.2623         0.000       
     426       14.1159         0.000       
     425       14.0537         0.000       
     424       13.9754         0.000       
     423       13.9374         0.000       
     422       13.8952         0.000       
     421       13.8355         0.000       
     420       13.7536         0.000       
     419       13.7358         0.000       
     418       13.6276         0.000       
     417       13.5739         0.000       
     416       13.4597         0.000       
     415       13.3775         0.000       
     414       13.3229         0.000       
     413       13.1868         0.000       
     412       13.1034         0.000       
     411       13.0748         0.000       
     410       12.9560         0.000       
     409       12.9034         0.000       
     408       12.8638         0.000       
     407       12.7592         0.000       
     406       12.6975         0.000       
     405       12.6459         0.000       
     404       12.5867         0.000       
     403       12.4858         0.000       
     402       12.4045         0.000       
     401       12.3752         0.000       
     400       12.2638         0.000       
     399       12.1409         0.000       
     398       12.0939         0.000       
     397       12.0294         0.000       
     396       11.9771         0.000       
     395       11.8960         0.000       
     394       11.8445         0.000       
     393       11.8000         0.000       
     392       11.6726         0.000       
     391       11.5253         0.000       
     390       11.4730         0.000       
     389       11.4456         0.000       
     388       11.3831         0.000       
     387       11.3659         0.000       
     386       11.2608         0.000       
     385       11.2125         0.000       
     384       11.1613         0.000       
     383       11.0912         0.000       
     382       11.0560         0.000       
     381       10.9632         0.000       
     380       10.9200         0.000       
     379       10.8538         0.000       
     378       10.8110         0.000       
     377       10.5912         0.000       
     376       10.5600         0.000       
     375       10.5218         0.000       
     374       10.5058         0.000       
     373       10.3785         0.000       
     372       10.3067         0.000       
     371       10.1755         0.000       
     370       10.1121         0.000       
     369       10.0328         0.000       
     368        9.9960         0.000       
     367        9.8642         0.000       
     366        9.8320         0.000       
     365        9.8117         0.000       
     364        9.7585         0.000       
     363        9.7275         0.000       
     362        9.5780         0.000       
     361        9.5538         0.000       
     360        9.4953         0.000       
     359        9.4607         0.000       
     358        9.3215         0.000       
     357        9.1481         0.000       
     356        9.0796         0.000       
     355        9.0380         0.000       
     354        8.9730         0.000       
     353        8.8388         0.000       
     352        8.7813         0.000       
     351        8.6609         0.000       
     350        8.6202         0.000       
     349        8.4369         0.000       
     348        8.3149         0.000       
     347        8.2255         0.000       
     346        8.1961         0.000       
     345        8.1240         0.000       
     344        8.0982         0.000       
     343        8.0313         0.000       
     342        7.9976         0.000       
     341        7.9311         0.000       
     340        7.8616         0.000       
     339        7.8322         0.000       
     338        7.7278         0.000       
     337        7.6825         0.000       
     336        7.6301         0.000       
     335        7.5028         0.000       
     334        7.4494         0.000       
     333        7.4293         0.000       
     332        7.3778         0.000       
     331        7.3279         0.000       
     330        7.2836         0.000       
     329        7.1711         0.000       
     328        7.1418         0.000       
     327        7.1391         0.000       
     326        7.0230         0.000       
     325        6.9661         0.000       
     324        6.9521         0.000       
     323        6.9257         0.000       
     322        6.8531         0.000       
     321        6.8178         0.000       
     320        6.7203         0.000       
     319        6.6672         0.000       
     318        6.6401         0.000       
     317        6.5990         0.000       
     316        6.5542         0.000       
     315        6.4735         0.000       
     314        6.4531         0.000       
     313        6.4336         0.000       
     312        6.3789         0.000       
     311        6.3150         0.000       
     310        6.1903         0.000       
     309        6.1599         0.000       
     308        6.1236         0.000       
     307        5.9695         0.000       
     306        5.9252         0.000       
     305        5.8962         0.000       
     304        5.7864         0.000       
     303        5.7368         0.000       
     302        5.6464         0.000       
     301        5.5835         0.000       
     300        5.5628         0.000       
     299        5.4843         0.000       
     298        5.3766         0.000       
     297        5.2945         0.000       
     296        5.1976         0.000       
     295        5.1557         0.000       
     294        5.0906         0.000       
     293        5.0143         0.000       
     292        4.9048         0.000       
     291        4.8773         0.000       
     290        4.7849         0.000       
     289        4.7708         0.000       
     288        4.6635         0.000       
     287        4.5865         0.000       
     286        4.4632         0.000       
     285        4.4203         0.000       
     284        4.3262         0.000       
     283        4.2569         0.000       
     282        4.1930         0.000       
     281        4.1310         0.000       
     280        4.0736         0.000       
     279        3.9884         0.000       
     278        3.9067         0.000       
     277        3.8270         0.000       
     276        3.7942         0.000       
     275        3.6963         0.000       
     274        3.6619         0.000       
     273        3.6281         0.000       
     272        3.5628         0.000       
     271        3.5174         0.000       
     270        3.4907         0.000       
     269        3.4690         0.000       
     268        3.4283         0.000       
     267        3.3634         0.000       
     266        3.2542         0.000       
     265        3.1744         0.000       
     264        3.0821         0.000       
     263        3.0564         0.000       
     262        2.9874         0.000       
     261        2.9192         0.000       
     260        2.8695         0.000       
     259        2.7556         0.000       
     258        2.7244         0.000       
     257        2.6070         0.000       
     256        2.5687         0.000       
     255        2.5098         0.000       
     254        2.3817         0.000       
     253        2.3003         0.000       
     252        2.2671         0.000       
     251        2.2423         0.000       
     250        2.1343         0.000       
     249        2.1197         0.000       
     248        2.0297         0.000       
     247        1.9530         0.000       
     246        1.8412         0.000       
     245        1.7831         0.000       
     244        1.7721         0.000       
     243        1.7264         0.000       
     242        1.6313         0.000       
     241        1.6227         0.000       
     240        1.4138         0.000       
     239        1.3054         0.000       
     238        1.2976         0.000       
     237        1.2046         0.000       
     236        1.1409         0.000       
     235        1.0394         0.000       
     234        0.9178         0.000       
     233        0.8468         0.000       
     232        0.7884         0.000       
     231        0.7559         0.000       
     230        0.6234         0.000       
     229        0.5182         0.000       
     228        0.4653         0.000       
     227        0.3677         0.000       
     226        0.1929         0.000       
     225        0.1325         0.000       
     224        0.0282         0.000       
     223       -0.0540         0.000       
     222       -0.2119         0.000       
     221       -0.6402         0.000       
     220       -1.2419         0.000       
     219       -1.4441         0.000 < LUMO
     218       -5.3969         2.000 < HOMO
     217       -6.1922         2.000       
     216       -6.9266         2.000       
     215       -7.0173         2.000       
     214       -7.1431         2.000       
     213       -7.1855         2.000       
     212       -7.3101         2.000       
     211       -7.6686         2.000       
     210       -7.8326         2.000       
     209       -8.0335         2.000       
     208       -8.0430         2.000       
     207       -8.1291         2.000       
     206       -8.1907         2.000       
     205       -8.3203         2.000       
     204       -8.3444         2.000       
     203       -8.5995         2.000       
     202       -8.7427         2.000       
     201       -8.8937         2.000       
     200       -9.0381         2.000       
     199       -9.2308         2.000       
     198       -9.2589         2.000       
     197       -9.3172         2.000       
     196       -9.3892         2.000       
     195       -9.4268         2.000       
     194       -9.4370         2.000       
     193       -9.4643         2.000       
     192       -9.4732         2.000       
     191       -9.4969         2.000       
     190       -9.5518         2.000       
     189       -9.5635         2.000       
     188       -9.6543         2.000       
     187       -9.6775         2.000       
     186       -9.7016         2.000       
     185       -9.7262         2.000       
     184       -9.7651         2.000       
     183       -9.9528         2.000       
     182      -10.0641         2.000       
     181      -10.1132         2.000       
     180      -10.2362         2.000       
     179      -10.3522         2.000       
     178      -10.5485         2.000       
     177      -10.7649         2.000       
     176      -10.8211         2.000       
     175      -10.9764         2.000       
     174      -11.0569         2.000       
     173      -11.1266         2.000       
     172      -11.2766         2.000       
     171      -11.3197         2.000       
     170      -11.3482         2.000       
     169      -11.4359         2.000       
     168      -11.6361         2.000       
     167      -11.6712         2.000       
     166      -11.7197         2.000       
     165      -11.7832         2.000       
     164      -11.7921         2.000       
     163      -11.8990         2.000       
     162      -11.9360         2.000       
     161      -11.9884         2.000       
     160      -12.0418         2.000       
     159      -12.2672         2.000       
     158      -12.2968         2.000       
     157      -12.3787         2.000       
     156      -12.4307         2.000       
     155      -12.4610         2.000       
     154      -12.5963         2.000       
     153      -12.6238         2.000       
     152      -12.8024         2.000       
     151      -12.8329         2.000       
     150      -12.8616         2.000       
     149      -12.9087         2.000       
     148      -12.9747         2.000       
     147      -13.0197         2.000       
     146      -13.0942         2.000       
     145      -13.1518         2.000       
     144      -13.1978         2.000       
     143      -13.2143         2.000       
     142      -13.3317         2.000       
     141      -13.4734         2.000       
     140      -13.5284         2.000       
     139      -13.5551         2.000       
     138      -13.7516         2.000       
     137      -13.9817         2.000       
     136      -14.1572         2.000       
     135      -14.2941         2.000       
     134      -14.6035         2.000       
     133      -14.6093         2.000       
     132      -14.7661         2.000       
     131      -14.9201         2.000       
     130      -15.1179         2.000       
     129      -15.3047         2.000       
     128      -15.4394         2.000       
     127      -15.4641         2.000       
     126      -16.0799         2.000       
     125      -16.2811         2.000       
     124      -16.3046         2.000       
     123      -16.3675         2.000       
     122      -16.4675         2.000       
     121      -16.5643         2.000       
     120      -16.6318         2.000       
     119      -16.7097         2.000       
     118      -16.7466         2.000       
     117      -17.1089         2.000       
     116      -17.3947         2.000       
     115      -17.4604         2.000       
     114      -17.6577         2.000       
     113      -18.6173         2.000       
     112      -18.7590         2.000       
     111      -18.8914         2.000       
     110      -18.9421         2.000       
     109      -18.9475         2.000       
     108      -19.0667         2.000       
     107      -19.1043         2.000       
     106      -19.9844         2.000       
     105      -20.4758         2.000       
     104      -20.7597         2.000       
     103      -21.1851         2.000       
     102      -21.5495         2.000       
     101      -21.7902         2.000       
     100      -21.8020         2.000       
      99      -21.8457         2.000       
      98      -21.8933         2.000       
      97      -21.9301         2.000       
      96      -21.9526         2.000       
      95      -22.2910         2.000       
      94      -22.6788         2.000       
      93      -22.8607         2.000       
      92      -24.4948         2.000       
      91      -24.6556         2.000       
      90      -24.8005         2.000       
      89      -24.8521         2.000       
      88      -24.9452         2.000       
      87      -26.9716         2.000       
      86      -28.3966         2.000       
      85      -30.4448         2.000       
      84      -31.3927         2.000       
      83      -34.8750         2.000       
      82      -35.0533         2.000       
      81      -35.2911         2.000       
      80      -35.5334         2.000       
      79      -56.9943         2.000       
      78      -57.4719         2.000       
      77      -57.8034         2.000       
      76      -92.7816         2.000       
      75     -129.2067         2.000       
      74     -129.2820         2.000       
      73     -129.2877         2.000       
      72     -166.1114         2.000       
      71     -166.1243         2.000       
      70     -166.1665         2.000       
      69     -181.0708         2.000       
      68     -197.6068         2.000       
      67     -197.6199         2.000       
      66     -197.9017         2.000       
      65     -223.6804         2.000       
      64     -261.2545         2.000       
      63     -278.0617         2.000       
      62     -278.1173         2.000       
      61     -278.2528         2.000       
      60     -278.2539         2.000       
      59     -278.2584         2.000       
      58     -278.2662         2.000       
      57     -278.2758         2.000       
      56     -278.3289         2.000       
      55     -278.3300         2.000       
      54     -278.3722         2.000       
      53     -278.4334         2.000       
      52     -278.4898         2.000       
      51     -278.4991         2.000       
      50     -278.5097         2.000       
      49     -278.5369         2.000       
      48     -278.5451         2.000       
      47     -278.5614         2.000       
      46     -278.5661         2.000       
      45     -278.5739         2.000       
      44     -278.5747         2.000       
      43     -278.6141         2.000       
      42     -278.8333         2.000       
      41     -278.8807         2.000       
      40     -278.9077         2.000       
      39     -278.9118         2.000       
      38     -279.1584         2.000       
      37     -279.2356         2.000       
      36     -279.2775         2.000       
      35     -279.5331         2.000       
      34     -280.0175         2.000       
      33     -280.2639         2.000       
      32     -280.3790         2.000       
      31     -280.4365         2.000       
      30     -280.9129         2.000       
      29     -281.4193         2.000       
      28     -281.4532         2.000       
      27     -281.4824         2.000       
      26     -281.4979         2.000       
      25     -337.0264         2.000       
      24     -337.0397         2.000       
      23     -337.1074         2.000       
      22     -337.1922         2.000       
      21     -337.2010         2.000       
      20     -393.4465         2.000       
      19     -523.0912         2.000       
      18     -523.1449         2.000       
      17     -524.2284         2.000       
      16     -530.8754         2.000       
      15     -531.0525         2.000       
      14     -531.1371         2.000       
      13     -652.8575         2.000       
      12     -675.3547         2.000       
      11     -675.6144         2.000       
      10     -675.6634         2.000       
       9     -675.6654         2.000       
       8    -2107.1354         2.000       
       7    -2435.4577         2.000       
       6    -2777.4780         2.000       
       5    -3189.0019         2.000       
       4    -3189.0833         2.000       
       3    -3189.1075         2.000       
       2    -3560.0090         2.000       
       1   -24223.2430         2.000       

AMS application finished. Exiting.
NORMAL TERMINATION
     Total cpu time:    4190.20
  Total system time:      24.82
 Total elapsed time:    4233.27
NORMAL TERMINATION
