

 Parallel Execution: Process Information
 ==============================================================================
 Rank   Node Name                              NodeID   MyNodeRank  NodeMaster
    0   eu-g5-012-4                               0          0          0
    1   eu-g5-012-4                               1          0          1
    2   eu-g5-012-4                               0          1         -1
    3   eu-g5-012-4                               1          1         -1
    4   eu-g5-012-4                               0          2         -1
    5   eu-g5-012-4                               1          2         -1
    6   eu-g5-012-4                               0          3         -1
    7   eu-g5-012-4                               1          3         -1
    8   eu-g5-012-4                               0          4         -1
    9   eu-g5-012-4                               1          4         -1
   10   eu-g5-012-4                               0          5         -1
   11   eu-g5-012-4                               1          5         -1
   12   eu-g5-012-4                               0          6         -1
   13   eu-g5-012-4                               1          6         -1
   14   eu-g5-012-4                               0          7         -1
   15   eu-g5-012-4                               1          7         -1
 ==============================================================================


May use up to 30549MB of RAM as shared memory on node 0
May use up to 30759MB of RAM as shared memory on node 1

 *******************************************************************************
 *                                                                             *
 *  --------------------------------                                           *
 *   Amsterdam Modeling Suite (AMS)              2023.101                      *
 *  --------------------------------                                           *
 *                                               r111868 2023-03-31            *
 *                                                                             *
 *                                                                             *
 *                              =================                              *
 *                              |               |                              *
 *                              |     A M S     |                              *
 *                              |               |                              *
 *                              =================                              *
 *                                                                             *
 *                                                                             *
 *   Online information and documentation:  https://www.scm.com/support/       *
 *   E-mail:  support@scm.com   info@scm.com                                   *
 *                                                                             *
 *   Scientific publications using AMS results must be properly referenced     *
 *   See the User Manuals (or the web site) for recommended citations          *
 *   The terms and conditions of the End User License Agreement apply to       *
 *   the use of AMS, https://www.scm.com/license-terms/                        *
 *                                                                             *
 ***********************  x86_64_linux_intel / openmpi  ************************
 
 Licensed to: D-CHAB / ETH site license / Zurich / Switzerland 2023-06-23 15:55:12
 SCM User ID: u7035
  
 AMS 2023.101  RunTime: May25-2024 09:19:12  ShM Nodes: 2  Procs: 16

 AMS jobname: ts_ptbu2cy
 AMS jobid  : 1282879920

 Start   directory: /cluster/scratch/sroediger/michael/eda/
 Results directory: /cluster/scratch/sroediger/michael/eda/ts_ptbu2cy.results/
 Scratch directory: /scratch/amstmp_ts_ptbu2cy_kid0.1282879920/


 Communication costs MPI_COMM_WORLD:      6.868 usec per message,   0.0166 usec per 8-byte item
 Communication costs for intra-node:      3.348 usec per message,   0.0142 usec per 8-byte item

 RNG seed: -1847271282 1022005703 -1605517209 650541959 1852605319 -1807512110 -1426157560 301261606



                     *************************************************************************
                     *  ADF 2023.101  RunTime: May25-2024 09:19:13  ShM Nodes: 2  Procs: 16  *
                     *************************************************************************
  

       ****************************
       * SINGLE POINT CALCULATION *
       ****************************
 
--------
Geometry
--------
Formula: C28H37ClF4NO3PPdS
Atoms
  Index Symbol   x (angstrom)   y (angstrom)   z (angstrom)
      1     Pd     0.50618300    -0.62101500    -0.69731100       region=pdsubstrate adf.f=pdsubstrate
      2      C    -0.55132500     1.06904800    -0.26794100       region=pdsubstrate adf.f=pdsubstrate
      3      C     0.03248500     2.24545200    -0.76851100       region=pdsubstrate adf.f=pdsubstrate
      4      H     0.62566800     2.21977200    -1.68287700       region=pdsubstrate adf.f=pdsubstrate
      5      C    -0.10751000     3.42564500    -0.05113700       region=pdsubstrate adf.f=pdsubstrate
      6      H     0.38795200     4.34089500    -0.38182400       region=pdsubstrate adf.f=pdsubstrate
      7      C    -0.86683200     3.47395100     1.13237000       region=pdsubstrate adf.f=pdsubstrate
      8      C    -1.56415900     2.34063700     1.55029900       region=pdsubstrate adf.f=pdsubstrate
      9      H    -2.24381600     2.37185600     2.39991000       region=pdsubstrate adf.f=pdsubstrate
     10      C    -1.44931800     1.14908200     0.81916200       region=pdsubstrate adf.f=pdsubstrate
     11      C    -2.31507000    -0.01146600     0.92065600       region=pdsubstrate adf.f=pdsubstrate
     12      C    -3.13228100    -0.40267200     1.97589000       region=pdsubstrate adf.f=pdsubstrate
     13      C    -3.94813600    -1.52292200     1.85650200       region=pdsubstrate adf.f=pdsubstrate
     14      C    -3.93532500    -2.26909800     0.67691600       region=pdsubstrate adf.f=pdsubstrate
     15      C    -3.10938500    -1.90931600    -0.38790500       region=pdsubstrate adf.f=pdsubstrate
     16      C    -2.32436200    -0.76237900    -0.28153000       region=pdsubstrate adf.f=pdsubstrate
     17      N    -1.42355100    -0.28991900    -1.25177600       region=pdsubstrate adf.f=pdsubstrate
     18      S    -1.89473100     0.21026300    -2.77487700       region=pdsubstrate adf.f=pdsubstrate
     19      O    -0.66942100     0.62807200    -3.44253800       region=pdsubstrate adf.f=pdsubstrate
     20      O    -2.80341000    -0.75101200    -3.36632900       region=pdsubstrate adf.f=pdsubstrate
     21      C    -2.81901500     1.74158500    -2.50794400       region=pdsubstrate adf.f=pdsubstrate
     22     Cl    -4.31889700     1.50160300    -1.62073300       region=pdsubstrate adf.f=pdsubstrate
     23      H    -3.03350900     2.11196400    -3.51995400       region=pdsubstrate adf.f=pdsubstrate
     24      H    -2.16481000     2.43744400    -1.96698200       region=pdsubstrate adf.f=pdsubstrate
     25      F    -3.06927300    -2.69669100    -1.44440700       region=pdsubstrate adf.f=pdsubstrate
     26      F    -4.67915300    -3.35893600     0.59245400       region=pdsubstrate adf.f=pdsubstrate
     27      F    -4.71916000    -1.90228400     2.86269400       region=pdsubstrate adf.f=pdsubstrate
     28      F    -3.14216200     0.27356400     3.12233200       region=pdsubstrate adf.f=pdsubstrate
     29      O    -0.89827300     4.66502600     1.76884200       region=pdsubstrate adf.f=pdsubstrate
     30      C    -1.66848100     4.77780400     2.93118000       region=pdsubstrate adf.f=pdsubstrate
     31      H    -1.33733800     4.07096800     3.71317400       region=pdsubstrate adf.f=pdsubstrate
     32      H    -2.74148100     4.60497700     2.73335800       region=pdsubstrate adf.f=pdsubstrate
     33      H    -1.53737300     5.80311800     3.29968000       region=pdsubstrate adf.f=pdsubstrate
     34      P     2.50631300    -0.89119200     0.41043500       region=ligand adf.f=ligand
     35      C     3.93215800    -0.03930900    -0.45194600       region=ligand adf.f=ligand
     36      C     2.36785000    -0.29209900     2.20173100       region=ligand adf.f=ligand
     37      C     2.96985300    -2.72711400     0.30303800       region=ligand adf.f=ligand
     38      C     3.45153900     1.18356200    -1.24237900       region=ligand adf.f=ligand
     39      C     5.20458800     0.28452500     0.33643600       region=ligand adf.f=ligand
     40      H     4.20575100    -0.80123600    -1.20583800       region=ligand adf.f=ligand
     41      C     3.49955800    -0.73570400     3.12795600       region=ligand adf.f=ligand
     42      C     2.30218600     1.23844200     2.13390500       region=ligand adf.f=ligand
     43      C     1.03018800    -0.77971000     2.77262400       region=ligand adf.f=ligand
     44      C     2.03919200    -3.54868800     1.19570900       region=ligand adf.f=ligand
     45      C     2.69088800    -3.11858000    -1.15502200       region=ligand adf.f=ligand
     46      C     4.42739400    -3.04516300     0.63495000       region=ligand adf.f=ligand
     47      C     4.55132100     1.73537300    -2.14270300       region=ligand adf.f=ligand
     48      H     2.56955200     0.90304700    -1.84047700       region=ligand adf.f=ligand
     49      H     3.11219200     1.96806000    -0.54485800       region=ligand adf.f=ligand
     50      C     6.29676900     0.82217100    -0.58559100       region=ligand adf.f=ligand
     51      H     5.57304100    -0.59946700     0.87489600       region=ligand adf.f=ligand
     52      H     4.98491600     1.04734500     1.10079300       region=ligand adf.f=ligand
     53      H     4.48768500    -0.40348500     2.78574300       region=ligand adf.f=ligand
     54      H     3.33366800    -0.30200700     4.12835600       region=ligand adf.f=ligand
     55      H     3.52500000    -1.82785400     3.25115000       region=ligand adf.f=ligand
     56      H     2.08643800     1.63119100     3.14090100       region=ligand adf.f=ligand
     57      H     3.24499600     1.69082600     1.79890700       region=ligand adf.f=ligand
     58      H     1.49834700     1.57854200     1.46551800       region=ligand adf.f=ligand
     59      H     0.19201000    -0.51212200     2.11347900       region=ligand adf.f=ligand
     60      H     0.86330900    -0.29353500     3.74799300       region=ligand adf.f=ligand
     61      H     1.00683000    -1.86389500     2.93563700       region=ligand adf.f=ligand
     62      H     2.26315200    -3.41930000     2.26372000       region=ligand adf.f=ligand
     63      H     0.98248900    -3.28879400     1.02530100       region=ligand adf.f=ligand
     64      H     2.16421700    -4.61861100     0.96113100       region=ligand adf.f=ligand
     65      H     2.95390800    -4.17840900    -1.30869600       region=ligand adf.f=ligand
     66      H     1.62405900    -2.99701500    -1.40876100       region=ligand adf.f=ligand
     67      H     3.27444300    -2.52538300    -1.87548800       region=ligand adf.f=ligand
     68      H     4.58792800    -4.13323300     0.55289500       region=ligand adf.f=ligand
     69      H     5.12477500    -2.56402100    -0.06588400       region=ligand adf.f=ligand
     70      H     4.70305000    -2.74775000     1.65555900       region=ligand adf.f=ligand
     71      C     5.82276700     2.04417100    -1.36206400       region=ligand adf.f=ligand
     72      H     4.18866500     2.63440700    -2.66646000       region=ligand adf.f=ligand
     73      H     4.77907300     0.99180300    -2.92794000       region=ligand adf.f=ligand
     74      H     7.19655700     1.06171800     0.00393900       region=ligand adf.f=ligand
     75      H     6.59347000     0.02958200    -1.29667500       region=ligand adf.f=ligand
     76      H     6.61507500     2.40188200    -2.03912400       region=ligand adf.f=ligand
     77      H     5.62416900     2.86831000    -0.65289100       region=ligand adf.f=ligand
 
Total System Charge             0.00000
Bonding info available!
 
 
----------------
ADF Engine Input
----------------
 
 Basis
 Type TZP
 Core None
 End
 Fragments
 ligand ./ts_ptbu2cy.ligand.results/adf.rkf
 pdsubstrate ./ts_ptbu2cy.pdsubstrate.results/adf.rkf
 End
 XC
 Hybrid PBE0
 DISPERSION Grimme3 BJDAMP
 End
 NumericalQuality VeryGood
 

 Title: *** (NO TITLE) ***

 *** adf ***



 ===========================
 A T T A C H E D   F I L E S
 ===========================
  



 ===============================
 M O D E L   P A R A M E T E R S
 ===============================
  
 DENSITY FUNCTIONAL POTENTIAL (scf)
    Hybrid:                            PBE0                                    == Not Default ==

 SPIN  (restricted / unrestr.)
    Molecule:                          Restricted                               
    Fragments:                         Restricted                               

 OTHER ASPECTS
    Relativistic Corrections:          scalar (ZORA,MAPA)                       

    Nuclear Charge Density Model:      Point Charge Nuclei                      
    Core Treatment:                    Frozen Orbital(s)                        

    Hyperfine or Zeeman Interaction:   ---                                      

 Settings for Grimme D3 dispersion correction

      damping                        BJ
      s6                          1.000
      s8                          1.218
      a1                          0.414
      a2                          4.859

 Other (technical) parameters

      alpha                      14.000
      version                         4
 


 Fragment File(s)
 ----------------
 pdsubstrate:
         file : ./ts_ptbu2cy.pdsubstrate.results/adf.rkf
         jobid: 39174386
         title: *** adf ***
 ligand:
         file : ./ts_ptbu2cy.ligand.results/adf.rkf
         jobid: 645067031
         title: *** adf ***



 ===============
 G E O M E T R Y  ***  3D  Molecule  ***
 ===============
  

 ATOMS
 =====                            X Y Z                    CHARGE
                                (Angstrom)             Nucl     +Core       At.Mass
                       --------------------------    ----------------       -------
    1  Pd              0.5062   -0.6210   -0.6973     46.00     46.00      105.9035
    2  C              -0.5513    1.0690   -0.2679      6.00      6.00       12.0000
    3  C               0.0325    2.2455   -0.7685      6.00      6.00       12.0000
    4  H               0.6257    2.2198   -1.6829      1.00      1.00        1.0078
    5  C              -0.1075    3.4256   -0.0511      6.00      6.00       12.0000
    6  H               0.3880    4.3409   -0.3818      1.00      1.00        1.0078
    7  C              -0.8668    3.4740    1.1324      6.00      6.00       12.0000
    8  C              -1.5642    2.3406    1.5503      6.00      6.00       12.0000
    9  H              -2.2438    2.3719    2.3999      1.00      1.00        1.0078
   10  C              -1.4493    1.1491    0.8192      6.00      6.00       12.0000
   11  C              -2.3151   -0.0115    0.9207      6.00      6.00       12.0000
   12  C              -3.1323   -0.4027    1.9759      6.00      6.00       12.0000
   13  C              -3.9481   -1.5229    1.8565      6.00      6.00       12.0000
   14  C              -3.9353   -2.2691    0.6769      6.00      6.00       12.0000
   15  C              -3.1094   -1.9093   -0.3879      6.00      6.00       12.0000
   16  C              -2.3244   -0.7624   -0.2815      6.00      6.00       12.0000
   17  N              -1.4236   -0.2899   -1.2518      7.00      7.00       14.0031
   18  S              -1.8947    0.2103   -2.7749     16.00     16.00       31.9721
   19  O              -0.6694    0.6281   -3.4425      8.00      8.00       15.9949
   20  O              -2.8034   -0.7510   -3.3663      8.00      8.00       15.9949
   21  C              -2.8190    1.7416   -2.5079      6.00      6.00       12.0000
   22  Cl             -4.3189    1.5016   -1.6207     17.00     17.00       34.9689
   23  H              -3.0335    2.1120   -3.5200      1.00      1.00        1.0078
   24  H              -2.1648    2.4374   -1.9670      1.00      1.00        1.0078
   25  F              -3.0693   -2.6967   -1.4444      9.00      9.00       18.9984
   26  F              -4.6792   -3.3589    0.5925      9.00      9.00       18.9984
   27  F              -4.7192   -1.9023    2.8627      9.00      9.00       18.9984
   28  F              -3.1422    0.2736    3.1223      9.00      9.00       18.9984
   29  O              -0.8983    4.6650    1.7688      8.00      8.00       15.9949
   30  C              -1.6685    4.7778    2.9312      6.00      6.00       12.0000
   31  H              -1.3373    4.0710    3.7132      1.00      1.00        1.0078
   32  H              -2.7415    4.6050    2.7334      1.00      1.00        1.0078
   33  H              -1.5374    5.8031    3.2997      1.00      1.00        1.0078
   34  P               2.5063   -0.8912    0.4104     15.00     15.00       30.9738
   35  C               3.9322   -0.0393   -0.4519      6.00      6.00       12.0000
   36  C               2.3678   -0.2921    2.2017      6.00      6.00       12.0000
   37  C               2.9699   -2.7271    0.3030      6.00      6.00       12.0000
   38  C               3.4515    1.1836   -1.2424      6.00      6.00       12.0000
   39  C               5.2046    0.2845    0.3364      6.00      6.00       12.0000
   40  H               4.2058   -0.8012   -1.2058      1.00      1.00        1.0078
   41  C               3.4996   -0.7357    3.1280      6.00      6.00       12.0000
   42  C               2.3022    1.2384    2.1339      6.00      6.00       12.0000
   43  C               1.0302   -0.7797    2.7726      6.00      6.00       12.0000
   44  C               2.0392   -3.5487    1.1957      6.00      6.00       12.0000
   45  C               2.6909   -3.1186   -1.1550      6.00      6.00       12.0000
   46  C               4.4274   -3.0452    0.6350      6.00      6.00       12.0000
   47  C               4.5513    1.7354   -2.1427      6.00      6.00       12.0000
   48  H               2.5696    0.9030   -1.8405      1.00      1.00        1.0078
   49  H               3.1122    1.9681   -0.5449      1.00      1.00        1.0078
   50  C               6.2968    0.8222   -0.5856      6.00      6.00       12.0000
   51  H               5.5730   -0.5995    0.8749      1.00      1.00        1.0078
   52  H               4.9849    1.0473    1.1008      1.00      1.00        1.0078
   53  H               4.4877   -0.4035    2.7857      1.00      1.00        1.0078
   54  H               3.3337   -0.3020    4.1284      1.00      1.00        1.0078
   55  H               3.5250   -1.8279    3.2511      1.00      1.00        1.0078
   56  H               2.0864    1.6312    3.1409      1.00      1.00        1.0078
   57  H               3.2450    1.6908    1.7989      1.00      1.00        1.0078
   58  H               1.4983    1.5785    1.4655      1.00      1.00        1.0078
   59  H               0.1920   -0.5121    2.1135      1.00      1.00        1.0078
   60  H               0.8633   -0.2935    3.7480      1.00      1.00        1.0078
   61  H               1.0068   -1.8639    2.9356      1.00      1.00        1.0078
   62  H               2.2632   -3.4193    2.2637      1.00      1.00        1.0078
   63  H               0.9825   -3.2888    1.0253      1.00      1.00        1.0078
   64  H               2.1642   -4.6186    0.9611      1.00      1.00        1.0078
   65  H               2.9539   -4.1784   -1.3087      1.00      1.00        1.0078
   66  H               1.6241   -2.9970   -1.4088      1.00      1.00        1.0078
   67  H               3.2744   -2.5254   -1.8755      1.00      1.00        1.0078
   68  H               4.5879   -4.1332    0.5529      1.00      1.00        1.0078
   69  H               5.1248   -2.5640   -0.0659      1.00      1.00        1.0078
   70  H               4.7031   -2.7477    1.6556      1.00      1.00        1.0078
   71  C               5.8228    2.0442   -1.3621      6.00      6.00       12.0000
   72  H               4.1887    2.6344   -2.6665      1.00      1.00        1.0078
   73  H               4.7791    0.9918   -2.9279      1.00      1.00        1.0078
   74  H               7.1966    1.0617    0.0039      1.00      1.00        1.0078
   75  H               6.5935    0.0296   -1.2967      1.00      1.00        1.0078
   76  H               6.6151    2.4019   -2.0391      1.00      1.00        1.0078
   77  H               5.6242    2.8683   -0.6529      1.00      1.00        1.0078


 FRAGMENTS
 =========                                     Atoms in this Fragment     Cart. coord.s (Angstrom)
                                               -------------------------------------------------------
    1  pdsubstrate                                       1  Pd           0.5062   -0.6210   -0.6973
                                                         2  C           -0.5513    1.0690   -0.2679
                                                         3  C            0.0325    2.2455   -0.7685
                                                         5  C           -0.1075    3.4256   -0.0511
                                                         7  C           -0.8668    3.4740    1.1324
                                                         8  C           -1.5642    2.3406    1.5503
                                                        10  C           -1.4493    1.1491    0.8192
                                                        11  C           -2.3151   -0.0115    0.9207
                                                        12  C           -3.1323   -0.4027    1.9759
                                                        13  C           -3.9481   -1.5229    1.8565
                                                        14  C           -3.9353   -2.2691    0.6769
                                                        15  C           -3.1094   -1.9093   -0.3879
                                                        16  C           -2.3244   -0.7624   -0.2815
                                                        21  C           -2.8190    1.7416   -2.5079
                                                        30  C           -1.6685    4.7778    2.9312
                                                         4  H            0.6257    2.2198   -1.6829
                                                         6  H            0.3880    4.3409   -0.3818
                                                         9  H           -2.2438    2.3719    2.3999
                                                        23  H           -3.0335    2.1120   -3.5200
                                                        24  H           -2.1648    2.4374   -1.9670
                                                        31  H           -1.3373    4.0710    3.7132
                                                        32  H           -2.7415    4.6050    2.7334
                                                        33  H           -1.5374    5.8031    3.2997
                                                        17  N           -1.4236   -0.2899   -1.2518
                                                        18  S           -1.8947    0.2103   -2.7749
                                                        19  O           -0.6694    0.6281   -3.4425
                                                        20  O           -2.8034   -0.7510   -3.3663
                                                        29  O           -0.8983    4.6650    1.7688
                                                        22  Cl          -4.3189    1.5016   -1.6207
                                                        25  F           -3.0693   -2.6967   -1.4444
                                                        26  F           -4.6792   -3.3589    0.5925
                                                        27  F           -4.7192   -1.9023    2.8627
                                                        28  F           -3.1422    0.2736    3.1223
    2  ligand                                           45  C            2.6909   -3.1186   -1.1550
                                                        46  C            4.4274   -3.0452    0.6350
                                                        47  C            4.5513    1.7354   -2.1427
                                                        50  C            6.2968    0.8222   -0.5856
                                                        71  C            5.8228    2.0442   -1.3621
                                                        35  C            3.9322   -0.0393   -0.4519
                                                        36  C            2.3678   -0.2921    2.2017
                                                        37  C            2.9699   -2.7271    0.3030
                                                        38  C            3.4515    1.1836   -1.2424
                                                        39  C            5.2046    0.2845    0.3364
                                                        41  C            3.4996   -0.7357    3.1280
                                                        42  C            2.3022    1.2384    2.1339
                                                        43  C            1.0302   -0.7797    2.7726
                                                        44  C            2.0392   -3.5487    1.1957
                                                        48  H            2.5696    0.9030   -1.8405
                                                        49  H            3.1122    1.9681   -0.5449
                                                        51  H            5.5730   -0.5995    0.8749
                                                        52  H            4.9849    1.0473    1.1008
                                                        53  H            4.4877   -0.4035    2.7857
                                                        54  H            3.3337   -0.3020    4.1284
                                                        55  H            3.5250   -1.8279    3.2511
                                                        56  H            2.0864    1.6312    3.1409
                                                        57  H            3.2450    1.6908    1.7989
                                                        58  H            1.4983    1.5785    1.4655
                                                        59  H            0.1920   -0.5121    2.1135
                                                        60  H            0.8633   -0.2935    3.7480
                                                        61  H            1.0068   -1.8639    2.9356
                                                        62  H            2.2632   -3.4193    2.2637
                                                        63  H            0.9825   -3.2888    1.0253
                                                        64  H            2.1642   -4.6186    0.9611
                                                        65  H            2.9539   -4.1784   -1.3087
                                                        66  H            1.6241   -2.9970   -1.4088
                                                        67  H            3.2744   -2.5254   -1.8755
                                                        68  H            4.5879   -4.1332    0.5529
                                                        69  H            5.1248   -2.5640   -0.0659
                                                        70  H            4.7031   -2.7477    1.6556
                                                        72  H            4.1887    2.6344   -2.6665
                                                        73  H            4.7791    0.9918   -2.9279
                                                        74  H            7.1966    1.0617    0.0039
                                                        75  H            6.5935    0.0296   -1.2967
                                                        76  H            6.6151    2.4019   -2.0391
                                                        77  H            5.6242    2.8683   -0.6529
                                                        40  H            4.2058   -0.8012   -1.2058
                                                        34  P            2.5063   -0.8912    0.4104



 =====================================
 S Y M M E T R Y ,   E L E C T R O N S
 =====================================
  
 Symmetry: NOSYM

 Irreducible Representations, including subspecies
 -------------------------------------------------
 A


 Configuration of Valence Electrons
 ==================================
 ( determined in the SCF procedure )

 Total:   366

 Net Charge: 0 (Nuclei minus Electrons)

 Aufbau principle for MO occupations will be applied through SCF cycle no.     150
 Thereafter, the program will assign electrons to MOs that are spatially
 similar to the occupied MOs in a "reference" cycle ("KeepOrbitals").
 The reference cycle is always the PREVIOUS cycle: it will evolve with
 the SCF procedure.
1
 ***************************************************************************************************



                                      ****************************************
                                      *  B U I L D : (Fragments, Functions)  *
                                      ****************************************
  

 The individual fragments are copies of the corresponding 'Master' fragments defined on the fragment files.
 However, they may have been rotated (and translated) with respect to the Master. The local coordinate axes
 of each fragment (which define for instance the spatial orientation in the current molecule of a fragment
 P:x orbital) are not necessarily those of the molecule.
 The local frame (if different from the molecular one) is printed to enable an interpretation of the expan-
 sion of an MO in Fragment Orbitals.



                                         *********************************
                                         *  Fragment Type : pdsubstrate  *
                                         *********************************
  

 Fragment no.    1   (in the list of all fragments)
 -----------------
 The local coordinate frame is identical to the molecular frame.

 Check Atomic Coordinates:

                  Master (on file)          After Computed Tranformation               As specified on Input
           ----------------------------     ----------------------------     ---------------------------------
     1)     0.50618  -0.62101  -0.69731      0.50618  -0.62101  -0.69731       1   0.50618  -0.62101  -0.69731
     2)    -0.55133   1.06905  -0.26794     -0.55133   1.06905  -0.26794       2  -0.55133   1.06905  -0.26794
     3)     0.03248   2.24545  -0.76851      0.03248   2.24545  -0.76851       3   0.03248   2.24545  -0.76851
     4)    -0.10751   3.42564  -0.05114     -0.10751   3.42564  -0.05114       5  -0.10751   3.42564  -0.05114
     5)    -0.86683   3.47395   1.13237     -0.86683   3.47395   1.13237       7  -0.86683   3.47395   1.13237
     6)    -1.56416   2.34064   1.55030     -1.56416   2.34064   1.55030       8  -1.56416   2.34064   1.55030
     7)    -1.44932   1.14908   0.81916     -1.44932   1.14908   0.81916      10  -1.44932   1.14908   0.81916
     8)    -2.31507  -0.01147   0.92066     -2.31507  -0.01147   0.92066      11  -2.31507  -0.01147   0.92066
     9)    -3.13228  -0.40267   1.97589     -3.13228  -0.40267   1.97589      12  -3.13228  -0.40267   1.97589
    10)    -3.94814  -1.52292   1.85650     -3.94814  -1.52292   1.85650      13  -3.94814  -1.52292   1.85650
    11)    -3.93533  -2.26910   0.67692     -3.93533  -2.26910   0.67692      14  -3.93533  -2.26910   0.67692
    12)    -3.10939  -1.90932  -0.38790     -3.10939  -1.90932  -0.38790      15  -3.10939  -1.90932  -0.38790
    13)    -2.32436  -0.76238  -0.28153     -2.32436  -0.76238  -0.28153      16  -2.32436  -0.76238  -0.28153
    14)    -2.81901   1.74158  -2.50794     -2.81901   1.74158  -2.50794      21  -2.81901   1.74158  -2.50794
    15)    -1.66848   4.77780   2.93118     -1.66848   4.77780   2.93118      30  -1.66848   4.77780   2.93118
    16)     0.62567   2.21977  -1.68288      0.62567   2.21977  -1.68288       4   0.62567   2.21977  -1.68288
    17)     0.38795   4.34089  -0.38182      0.38795   4.34089  -0.38182       6   0.38795   4.34089  -0.38182
    18)    -2.24382   2.37186   2.39991     -2.24382   2.37186   2.39991       9  -2.24382   2.37186   2.39991
    19)    -3.03351   2.11196  -3.51995     -3.03351   2.11196  -3.51995      23  -3.03351   2.11196  -3.51995
    20)    -2.16481   2.43744  -1.96698     -2.16481   2.43744  -1.96698      24  -2.16481   2.43744  -1.96698
    21)    -1.33734   4.07097   3.71317     -1.33734   4.07097   3.71317      31  -1.33734   4.07097   3.71317
    22)    -2.74148   4.60498   2.73336     -2.74148   4.60498   2.73336      32  -2.74148   4.60498   2.73336
    23)    -1.53737   5.80312   3.29968     -1.53737   5.80312   3.29968      33  -1.53737   5.80312   3.29968
    24)    -1.42355  -0.28992  -1.25178     -1.42355  -0.28992  -1.25178      17  -1.42355  -0.28992  -1.25178
    25)    -1.89473   0.21026  -2.77488     -1.89473   0.21026  -2.77488      18  -1.89473   0.21026  -2.77488
    26)    -0.66942   0.62807  -3.44254     -0.66942   0.62807  -3.44254      19  -0.66942   0.62807  -3.44254
    27)    -2.80341  -0.75101  -3.36633     -2.80341  -0.75101  -3.36633      20  -2.80341  -0.75101  -3.36633
    28)    -0.89827   4.66503   1.76884     -0.89827   4.66503   1.76884      29  -0.89827   4.66503   1.76884
    29)    -4.31890   1.50160  -1.62073     -4.31890   1.50160  -1.62073      22  -4.31890   1.50160  -1.62073
    30)    -3.06927  -2.69669  -1.44441     -3.06927  -2.69669  -1.44441      25  -3.06927  -2.69669  -1.44441
    31)    -4.67915  -3.35894   0.59245     -4.67915  -3.35894   0.59245      26  -4.67915  -3.35894   0.59245
    32)    -4.71916  -1.90228   2.86269     -4.71916  -1.90228   2.86269      27  -4.71916  -1.90228   2.86269
    33)    -3.14216   0.27356   3.12233     -3.14216   0.27356   3.12233      28  -3.14216   0.27356   3.12233



                                            ****************************
                                            *  Fragment Type : ligand  *
                                            ****************************
  

 Fragment no.    2   (in the list of all fragments)
 -----------------
 The local coordinate frame is identical to the molecular frame.

 Check Atomic Coordinates:

                  Master (on file)          After Computed Tranformation               As specified on Input
           ----------------------------     ----------------------------     ---------------------------------
     1)     2.69089  -3.11858  -1.15502      2.69089  -3.11858  -1.15502      45   2.69089  -3.11858  -1.15502
     2)     4.42739  -3.04516   0.63495      4.42739  -3.04516   0.63495      46   4.42739  -3.04516   0.63495
     3)     4.55132   1.73537  -2.14270      4.55132   1.73537  -2.14270      47   4.55132   1.73537  -2.14270
     4)     6.29677   0.82217  -0.58559      6.29677   0.82217  -0.58559      50   6.29677   0.82217  -0.58559
     5)     5.82277   2.04417  -1.36206      5.82277   2.04417  -1.36206      71   5.82277   2.04417  -1.36206
     6)     3.93216  -0.03931  -0.45195      3.93216  -0.03931  -0.45195      35   3.93216  -0.03931  -0.45195
     7)     2.36785  -0.29210   2.20173      2.36785  -0.29210   2.20173      36   2.36785  -0.29210   2.20173
     8)     2.96985  -2.72711   0.30304      2.96985  -2.72711   0.30304      37   2.96985  -2.72711   0.30304
     9)     3.45154   1.18356  -1.24238      3.45154   1.18356  -1.24238      38   3.45154   1.18356  -1.24238
    10)     5.20459   0.28452   0.33644      5.20459   0.28452   0.33644      39   5.20459   0.28452   0.33644
    11)     3.49956  -0.73570   3.12796      3.49956  -0.73570   3.12796      41   3.49956  -0.73570   3.12796
    12)     2.30219   1.23844   2.13390      2.30219   1.23844   2.13390      42   2.30219   1.23844   2.13390
    13)     1.03019  -0.77971   2.77262      1.03019  -0.77971   2.77262      43   1.03019  -0.77971   2.77262
    14)     2.03919  -3.54869   1.19571      2.03919  -3.54869   1.19571      44   2.03919  -3.54869   1.19571
    15)     2.56955   0.90305  -1.84048      2.56955   0.90305  -1.84048      48   2.56955   0.90305  -1.84048
    16)     3.11219   1.96806  -0.54486      3.11219   1.96806  -0.54486      49   3.11219   1.96806  -0.54486
    17)     5.57304  -0.59947   0.87490      5.57304  -0.59947   0.87490      51   5.57304  -0.59947   0.87490
    18)     4.98492   1.04734   1.10079      4.98492   1.04734   1.10079      52   4.98492   1.04734   1.10079
    19)     4.48768  -0.40348   2.78574      4.48768  -0.40348   2.78574      53   4.48768  -0.40348   2.78574
    20)     3.33367  -0.30201   4.12836      3.33367  -0.30201   4.12836      54   3.33367  -0.30201   4.12836
    21)     3.52500  -1.82785   3.25115      3.52500  -1.82785   3.25115      55   3.52500  -1.82785   3.25115
    22)     2.08644   1.63119   3.14090      2.08644   1.63119   3.14090      56   2.08644   1.63119   3.14090
    23)     3.24500   1.69083   1.79891      3.24500   1.69083   1.79891      57   3.24500   1.69083   1.79891
    24)     1.49835   1.57854   1.46552      1.49835   1.57854   1.46552      58   1.49835   1.57854   1.46552
    25)     0.19201  -0.51212   2.11348      0.19201  -0.51212   2.11348      59   0.19201  -0.51212   2.11348
    26)     0.86331  -0.29353   3.74799      0.86331  -0.29353   3.74799      60   0.86331  -0.29353   3.74799
    27)     1.00683  -1.86390   2.93564      1.00683  -1.86390   2.93564      61   1.00683  -1.86390   2.93564
    28)     2.26315  -3.41930   2.26372      2.26315  -3.41930   2.26372      62   2.26315  -3.41930   2.26372
    29)     0.98249  -3.28879   1.02530      0.98249  -3.28879   1.02530      63   0.98249  -3.28879   1.02530
    30)     2.16422  -4.61861   0.96113      2.16422  -4.61861   0.96113      64   2.16422  -4.61861   0.96113
    31)     2.95391  -4.17841  -1.30870      2.95391  -4.17841  -1.30870      65   2.95391  -4.17841  -1.30870
    32)     1.62406  -2.99702  -1.40876      1.62406  -2.99702  -1.40876      66   1.62406  -2.99702  -1.40876
    33)     3.27444  -2.52538  -1.87549      3.27444  -2.52538  -1.87549      67   3.27444  -2.52538  -1.87549
    34)     4.58793  -4.13323   0.55290      4.58793  -4.13323   0.55290      68   4.58793  -4.13323   0.55290
    35)     5.12477  -2.56402  -0.06588      5.12477  -2.56402  -0.06588      69   5.12477  -2.56402  -0.06588
    36)     4.70305  -2.74775   1.65556      4.70305  -2.74775   1.65556      70   4.70305  -2.74775   1.65556
    37)     4.18867   2.63441  -2.66646      4.18867   2.63441  -2.66646      72   4.18867   2.63441  -2.66646
    38)     4.77907   0.99180  -2.92794      4.77907   0.99180  -2.92794      73   4.77907   0.99180  -2.92794
    39)     7.19656   1.06172   0.00394      7.19656   1.06172   0.00394      74   7.19656   1.06172   0.00394
    40)     6.59347   0.02958  -1.29668      6.59347   0.02958  -1.29668      75   6.59347   0.02958  -1.29668
    41)     6.61508   2.40188  -2.03912      6.61508   2.40188  -2.03912      76   6.61508   2.40188  -2.03912
    42)     5.62417   2.86831  -0.65289      5.62417   2.86831  -0.65289      77   5.62417   2.86831  -0.65289
    43)     4.20575  -0.80124  -1.20584      4.20575  -0.80124  -1.20584      40   4.20575  -0.80124  -1.20584
    44)     2.50631  -0.89119   0.41043      2.50631  -0.89119   0.41043      34   2.50631  -0.89119   0.41043

 Total nr. of (C)SFOs (summation over all irreps) :  1053

 Specify PRINT SFO in the input file to get a full list

 Nr. of SFOs for ir.rep.           A :  1053



 ================================
 (Slater-type)  F U N C T I O N S  ***  (Basis and Fit)  ***
 ================================
  

 Atom Type    1  (Pd)
 ==============

 Valence Basis Sets:  26
 -----------------------
   1 S  306.000000
   1 S   76.400000
   1 S   45.900000
   2 S   53.800000
   2 S   19.550000
   3 S   10.150000
   3 S    6.650000
   4 S    6.150000
   4 S    3.900000
   5 S    2.500000
   5 S    1.450000
   5 S    0.850000
   2 P   29.100000
   2 P   18.750000
   3 P   11.250000
   3 P    8.100000
   4 P    5.950000
   4 P    3.950000
   4 P    2.700000
   3 D   17.550000
   3 D   10.450000
   3 D    6.900000
   4 D    4.250000
   4 D    2.200000
   4 D    1.100000
   5 P    1.450000

 Charge Fitting Sets (for the computation of the Coulomb Potential):  58
 -----------------------------------------------------------------------
   1 S  612.000000
   1 S  446.101000
   1 S  325.174000
   1 S  237.027000
   1 S  172.774000
   1 S  125.939000
   1 S   91.800000
   1 S   53.670000
   2 S   58.190000
   2 S   38.430000
   3 S   37.300000
   3 S   26.280000
   4 S   24.500000
   4 S   18.000000
   5 S   16.470000
   5 S   12.460000
   6 S   11.300000
   6 S    8.740000
   7 S    7.890000
   7 S    6.210000
   8 S    5.590000
   8 S    4.470000
   8 S    3.570000
   9 S    3.210000
   9 S    2.600000
   9 S    2.100000
   9 S    1.700000
   2 P   64.650000
   3 P   49.410000
   4 P   37.530000
   5 P   28.620000
   6 P   21.980000
   6 P   14.500000
   7 P   11.220000
   7 P    7.620000
   8 P    5.940000
   8 P    4.130000
   9 P    3.240000
   9 P    2.300000
   3 D   56.350000
   4 D   37.260000
   5 D   25.120000
   6 D   17.230000
   6 D   10.190000
   7 D    7.110000
   7 D    4.360000
   8 D    3.090000
   8 D    1.950000
   4 F   47.900000
   5 F   28.270000
   6 F   17.190000
   6 F    9.040000
   7 F    5.640000
   7 F    3.100000
   5 G   20.900000
   6 G    9.980000
   7 G    4.980000
   7 G    2.200000

 Atom Type    2  (C)
 ==============

 Valence Basis Sets:   9
 -----------------------
   1 S    7.680000
   1 S    5.000000
   2 S    1.280000
   2 S    2.100000
   2 S    4.600000
   2 P    0.820000
   2 P    1.480000
   2 P    2.940000
   3 D    2.200000

 Charge Fitting Sets (for the computation of the Coulomb Potential):  22
 -----------------------------------------------------------------------
   1 S   15.360000
   2 S   17.530000
   2 S   12.070000
   2 S    8.310000
   2 S    5.730000
   3 S    5.780000
   3 S    4.220000
   3 S    3.080000
   3 S    2.250000
   3 S    1.640000
   2 P    9.880000
   2 P    5.800000
   3 P    5.050000
   3 P    3.230000
   3 P    2.060000
   3 D    7.200000
   3 D    4.400000
   3 D    2.690000
   3 D    1.640000
   4 F    5.400000
   4 F    3.550000
   5 G    4.500000

 Atom Type    3  (H)
 ==============

 Valence Basis Sets:   4
 -----------------------
   1 S    0.690000
   1 S    0.920000
   1 S    1.580000
   2 P    1.250000

 Charge Fitting Sets (for the computation of the Coulomb Potential):  11
 -----------------------------------------------------------------------
   1 S    3.160000
   1 S    2.090000
   1 S    1.380000
   2 S    1.500000
   2 P    4.000000
   2 P    2.650000
   2 P    1.750000
   3 D    4.000000
   3 D    2.500000
   4 F    3.000000
   5 G    4.000000

 Atom Type    4  (N)
 ==============

 Valence Basis Sets:   9
 -----------------------
   1 S    8.740000
   1 S    5.900000
   2 S    5.150000
   2 S    2.500000
   2 S    1.500000
   2 P    3.680000
   2 P    1.880000
   2 P    1.000000
   3 D    2.200000

 Charge Fitting Sets (for the computation of the Coulomb Potential):  22
 -----------------------------------------------------------------------
   1 S   17.480000
   2 S   20.150000
   2 S   13.990000
   2 S    9.710000
   2 S    6.740000
   3 S    6.860000
   3 S    5.040000
   3 S    3.700000
   3 S    2.720000
   3 S    2.000000
   2 P   11.320000
   2 P    6.730000
   3 P    5.920000
   3 P    3.820000
   3 P    2.460000
   3 D    8.100000
   3 D    5.080000
   3 D    3.190000
   3 D    2.000000
   4 F    5.800000
   4 F    3.600000
   5 G    4.500000

 Atom Type    5  (S)
 ==============

 Valence Basis Sets:  13
 -----------------------
   1 S   19.400000
   1 S   14.350000
   2 S    5.900000
   2 S    4.250000
   2 P    8.050000
   2 P    4.550000
   3 S    3.450000
   3 S    2.250000
   3 S    1.500000
   3 P    2.650000
   3 P    1.600000
   3 P    1.000000
   3 D    2.100000

 Charge Fitting Sets (for the computation of the Coulomb Potential):  30
 -----------------------------------------------------------------------
   1 S   38.800000
   1 S   23.350000
   2 S   26.020000
   2 S   17.570000
   3 S   17.420000
   3 S   12.500000
   3 S    8.980000
   4 S    8.520000
   4 S    6.360000
   4 S    4.750000
   5 S    4.420000
   5 S    3.390000
   5 S    2.600000
   5 S    2.000000
   2 P   27.450000
   3 P   20.250000
   4 P   14.920000
   4 P    8.780000
   5 P    6.520000
   5 P    4.040000
   5 P    2.500000
   3 D   20.900000
   4 D   14.560000
   4 D    8.130000
   5 D    5.740000
   5 D    3.390000
   5 D    2.000000
   4 F    5.000000
   4 F    3.000000
   5 G    3.620000

 Atom Type    6  (O)
 ==============

 Valence Basis Sets:   9
 -----------------------
   1 S    9.800000
   1 S    6.800000
   2 S    7.580000
   2 S    2.880000
   2 S    1.720000
   2 P    4.080000
   2 P    2.080000
   2 P    1.120000
   3 D    2.000000

 Charge Fitting Sets (for the computation of the Coulomb Potential):  22
 -----------------------------------------------------------------------
   1 S   19.600000
   2 S   22.600000
   2 S   15.680000
   2 S   10.890000
   2 S    7.560000
   3 S    7.690000
   3 S    5.650000
   3 S    4.150000
   3 S    3.050000
   3 S    2.240000
   2 P   12.860000
   2 P    7.680000
   3 P    6.780000
   3 P    4.390000
   3 P    2.840000
   3 D    8.800000
   3 D    5.580000
   3 D    3.530000
   3 D    2.240000
   4 F    6.200000
   4 F    3.700000
   5 G    4.500000

 Atom Type    7  (Cl)
 ==============

 Valence Basis Sets:  13
 -----------------------
   1 S   20.300000
   1 S   15.250000
   2 S    6.250000
   2 S    4.450000
   2 P    8.850000
   2 P    5.050000
   3 S    3.450000
   3 S    2.300000
   3 S    1.600000
   3 P    3.350000
   3 P    2.050000
   3 P    1.200000
   3 D    2.000000

 Charge Fitting Sets (for the computation of the Coulomb Potential):  30
 -----------------------------------------------------------------------
   1 S   40.600000
   1 S   24.830000
   2 S   28.080000
   2 S   19.200000
   3 S   19.250000
   3 S   13.970000
   3 S   10.130000
   4 S    9.710000
   4 S    7.320000
   4 S    5.510000
   5 S    5.170000
   5 S    4.000000
   5 S    3.100000
   5 S    2.400000
   2 P   29.150000
   3 P   21.740000
   4 P   16.160000
   4 P    9.600000
   5 P    7.180000
   5 P    4.480000
   5 P    2.800000
   3 D   21.950000
   4 D   15.750000
   4 D    9.040000
   5 D    6.550000
   5 D    3.960000
   5 D    2.400000
   4 F    5.000000
   4 F    3.000000
   5 G    3.500000

 Atom Type    8  (F)
 ==============

 Valence Basis Sets:   9
 -----------------------
   1 S   10.880000
   1 S    7.700000
   2 S    3.240000
   2 S    1.940000
   2 S    0.740000
   2 P    4.540000
   2 P    2.300000
   2 P    1.240000
   3 D    2.000000

 Charge Fitting Sets (for the computation of the Coulomb Potential):  23
 -----------------------------------------------------------------------
   1 S   21.760000
   2 S   24.390000
   2 S   16.560000
   2 S   11.240000
   2 S    7.630000
   3 S    7.600000
   3 S    5.480000
   3 S    3.950000
   3 S    2.850000
   3 S    2.050000
   3 S    1.480000
   2 P   14.400000
   2 P    7.530000
   3 P    5.900000
   3 P    3.420000
   3 P    1.980000
   3 D    9.700000
   3 D    6.160000
   3 D    3.910000
   3 D    2.480000
   4 F    6.500000
   4 F    3.750000
   5 G    4.500000

 Atom Type    9  (C)
 ==============

 Valence Basis Sets:   9
 -----------------------
   1 S    7.680000
   1 S    5.000000
   2 S    1.280000
   2 S    2.100000
   2 S    4.600000
   2 P    0.820000
   2 P    1.480000
   2 P    2.940000
   3 D    2.200000

 Charge Fitting Sets (for the computation of the Coulomb Potential):  22
 -----------------------------------------------------------------------
   1 S   15.360000
   2 S   17.530000
   2 S   12.070000
   2 S    8.310000
   2 S    5.730000
   3 S    5.780000
   3 S    4.220000
   3 S    3.080000
   3 S    2.250000
   3 S    1.640000
   2 P    9.880000
   2 P    5.800000
   3 P    5.050000
   3 P    3.230000
   3 P    2.060000
   3 D    7.200000
   3 D    4.400000
   3 D    2.690000
   3 D    1.640000
   4 F    5.400000
   4 F    3.550000
   5 G    4.500000

 Atom Type   10  (H)
 ==============

 Valence Basis Sets:   4
 -----------------------
   1 S    0.690000
   1 S    0.920000
   1 S    1.580000
   2 P    1.250000

 Charge Fitting Sets (for the computation of the Coulomb Potential):  11
 -----------------------------------------------------------------------
   1 S    3.160000
   1 S    2.090000
   1 S    1.380000
   2 S    1.500000
   2 P    4.000000
   2 P    2.650000
   2 P    1.750000
   3 D    4.000000
   3 D    2.500000
   4 F    3.000000
   5 G    4.000000

 Atom Type   11  (P)
 ==============

 Valence Basis Sets:  13
 -----------------------
   1 S   18.000000
   1 S   13.350000
   2 S    5.600000
   2 S    4.050000
   2 P    7.450000
   2 P    4.100000
   3 S    2.700000
   3 S    1.850000
   3 S    1.300000
   3 P    2.300000
   3 P    1.350000
   3 P    0.850000
   3 D    1.900000

 Charge Fitting Sets (for the computation of the Coulomb Potential):  30
 -----------------------------------------------------------------------
   1 S   36.000000
   1 S   21.450000
   2 S   23.670000
   2 S   15.860000
   3 S   15.600000
   3 S   11.130000
   3 S    7.940000
   4 S    7.490000
   4 S    5.560000
   4 S    4.130000
   5 S    3.810000
   5 S    2.910000
   5 S    2.230000
   5 S    1.700000
   2 P   25.450000
   3 P   18.490000
   4 P   13.440000
   4 P    7.810000
   5 P    5.730000
   5 P    3.510000
   5 P    2.150000
   3 D   19.350000
   4 D   13.230000
   4 D    7.250000
   5 D    5.040000
   5 D    2.930000
   5 D    1.700000
   4 F    5.000000
   4 F    3.000000
   5 G    3.750000


 BAS: List of all Elementary Cartesian Basis Functions
 =====================================================

 The numbering in the list below (to the right of the function characteristics) is referred
 to in print-outs of MO eigenvectors and Mulliken populations in the BAS representation
 (as contrasted to the SFO representation).

 Notes:
 1. The functions are characterized by a polynomial prefactor (powers of x,y,z and r) and
    an exponential decay factor alpha.
 2. Since the basis sets are specific for an atom TYPE, the individual functions occur on
    all atoms of that type.
 3. The word 'Core' in the left margin signals that it is a Core Function (CF) : not a
    degree of freedom in the valence set, but only used to ensure orthogonalization of
    the other valence basis functions on the frozen Core Orbitals.


 (power of) X  Y  Z  R     Alpha  on Atom
            ==========     =====     ==========

 Pd                                   1
                                  ---------------------------------------------------------------------------
            0  0  0  0   306.000      1
            0  0  0  0    76.400      2
            0  0  0  0    45.900      3
            0  0  0  1    53.800      4
            0  0  0  1    19.550      5
            0  0  0  2    10.150      6
            0  0  0  2     6.650      7
            0  0  0  3     6.150      8
            0  0  0  3     3.900      9
            0  0  0  4     2.500     10
            0  0  0  4     1.450     11
            0  0  0  4     0.850     12
            1  0  0  0    29.100     13
            0  1  0  0    29.100     14
            0  0  1  0    29.100     15
            1  0  0  0    18.750     16
            0  1  0  0    18.750     17
            0  0  1  0    18.750     18
            1  0  0  1    11.250     19
            0  1  0  1    11.250     20
            0  0  1  1    11.250     21
            1  0  0  1     8.100     22
            0  1  0  1     8.100     23
            0  0  1  1     8.100     24
            1  0  0  2     5.950     25
            0  1  0  2     5.950     26
            0  0  1  2     5.950     27
            1  0  0  2     3.950     28
            0  1  0  2     3.950     29
            0  0  1  2     3.950     30
            1  0  0  2     2.700     31
            0  1  0  2     2.700     32
            0  0  1  2     2.700     33
            2  0  0  0    17.550     34
            1  1  0  0    17.550     35
            1  0  1  0    17.550     36
            0  2  0  0    17.550     37
            0  1  1  0    17.550     38
            0  0  2  0    17.550     39
            2  0  0  0    10.450     40
            1  1  0  0    10.450     41
            1  0  1  0    10.450     42
            0  2  0  0    10.450     43
            0  1  1  0    10.450     44
            0  0  2  0    10.450     45
            2  0  0  0     6.900     46
            1  1  0  0     6.900     47
            1  0  1  0     6.900     48
            0  2  0  0     6.900     49
            0  1  1  0     6.900     50
            0  0  2  0     6.900     51
            2  0  0  1     4.250     52
            1  1  0  1     4.250     53
            1  0  1  1     4.250     54
            0  2  0  1     4.250     55
            0  1  1  1     4.250     56
            0  0  2  1     4.250     57
            2  0  0  1     2.200     58
            1  1  0  1     2.200     59
            1  0  1  1     2.200     60
            0  2  0  1     2.200     61
            0  1  1  1     2.200     62
            0  0  2  1     2.200     63
            2  0  0  1     1.100     64
            1  1  0  1     1.100     65
            1  0  1  1     1.100     66
            0  2  0  1     1.100     67
            0  1  1  1     1.100     68
            0  0  2  1     1.100     69
            1  0  0  3     1.450     70
            0  1  0  3     1.450     71
            0  0  1  3     1.450     72

 C                                    2    3    4    5    6    7    8    9   10   11   12   13   14   15
                                  ---------------------------------------------------------------------------
            0  0  0  0     7.680     73   93  113  133  153  173  193  213  233  253  273  293  313  333
            0  0  0  0     5.000     74   94  114  134  154  174  194  214  234  254  274  294  314  334
            0  0  0  1     1.280     75   95  115  135  155  175  195  215  235  255  275  295  315  335
            0  0  0  1     2.100     76   96  116  136  156  176  196  216  236  256  276  296  316  336
            0  0  0  1     4.600     77   97  117  137  157  177  197  217  237  257  277  297  317  337
            1  0  0  0     0.820     78   98  118  138  158  178  198  218  238  258  278  298  318  338
            0  1  0  0     0.820     79   99  119  139  159  179  199  219  239  259  279  299  319  339
            0  0  1  0     0.820     80  100  120  140  160  180  200  220  240  260  280  300  320  340
            1  0  0  0     1.480     81  101  121  141  161  181  201  221  241  261  281  301  321  341
            0  1  0  0     1.480     82  102  122  142  162  182  202  222  242  262  282  302  322  342
            0  0  1  0     1.480     83  103  123  143  163  183  203  223  243  263  283  303  323  343
            1  0  0  0     2.940     84  104  124  144  164  184  204  224  244  264  284  304  324  344
            0  1  0  0     2.940     85  105  125  145  165  185  205  225  245  265  285  305  325  345
            0  0  1  0     2.940     86  106  126  146  166  186  206  226  246  266  286  306  326  346
            2  0  0  0     2.200     87  107  127  147  167  187  207  227  247  267  287  307  327  347
            1  1  0  0     2.200     88  108  128  148  168  188  208  228  248  268  288  308  328  348
            1  0  1  0     2.200     89  109  129  149  169  189  209  229  249  269  289  309  329  349
            0  2  0  0     2.200     90  110  130  150  170  190  210  230  250  270  290  310  330  350
            0  1  1  0     2.200     91  111  131  151  171  191  211  231  251  271  291  311  331  351
            0  0  2  0     2.200     92  112  132  152  172  192  212  232  252  272  292  312  332  352

 H                                   16   17   18   19   20   21   22   23
                                  ---------------------------------------------------------------------------
            0  0  0  0     0.690    353  359  365  371  377  383  389  395
            0  0  0  0     0.920    354  360  366  372  378  384  390  396
            0  0  0  0     1.580    355  361  367  373  379  385  391  397
            1  0  0  0     1.250    356  362  368  374  380  386  392  398
            0  1  0  0     1.250    357  363  369  375  381  387  393  399
            0  0  1  0     1.250    358  364  370  376  382  388  394  400

 N                                   24
                                  ---------------------------------------------------------------------------
            0  0  0  0     8.740    401
            0  0  0  0     5.900    402
            0  0  0  1     5.150    403
            0  0  0  1     2.500    404
            0  0  0  1     1.500    405
            1  0  0  0     3.680    406
            0  1  0  0     3.680    407
            0  0  1  0     3.680    408
            1  0  0  0     1.880    409
            0  1  0  0     1.880    410
            0  0  1  0     1.880    411
            1  0  0  0     1.000    412
            0  1  0  0     1.000    413
            0  0  1  0     1.000    414
            2  0  0  0     2.200    415
            1  1  0  0     2.200    416
            1  0  1  0     2.200    417
            0  2  0  0     2.200    418
            0  1  1  0     2.200    419
            0  0  2  0     2.200    420

 S                                   25
                                  ---------------------------------------------------------------------------
            0  0  0  0    19.400    421
            0  0  0  0    14.350    422
            0  0  0  1     5.900    423
            0  0  0  1     4.250    424
            1  0  0  0     8.050    425
            0  1  0  0     8.050    426
            0  0  1  0     8.050    427
            1  0  0  0     4.550    428
            0  1  0  0     4.550    429
            0  0  1  0     4.550    430
            0  0  0  2     3.450    431
            0  0  0  2     2.250    432
            0  0  0  2     1.500    433
            1  0  0  1     2.650    434
            0  1  0  1     2.650    435
            0  0  1  1     2.650    436
            1  0  0  1     1.600    437
            0  1  0  1     1.600    438
            0  0  1  1     1.600    439
            1  0  0  1     1.000    440
            0  1  0  1     1.000    441
            0  0  1  1     1.000    442
            2  0  0  0     2.100    443
            1  1  0  0     2.100    444
            1  0  1  0     2.100    445
            0  2  0  0     2.100    446
            0  1  1  0     2.100    447
            0  0  2  0     2.100    448

 O                                   26   27   28
                                  ---------------------------------------------------------------------------
            0  0  0  0     9.800    449  469  489
            0  0  0  0     6.800    450  470  490
            0  0  0  1     7.580    451  471  491
            0  0  0  1     2.880    452  472  492
            0  0  0  1     1.720    453  473  493
            1  0  0  0     4.080    454  474  494
            0  1  0  0     4.080    455  475  495
            0  0  1  0     4.080    456  476  496
            1  0  0  0     2.080    457  477  497
            0  1  0  0     2.080    458  478  498
            0  0  1  0     2.080    459  479  499
            1  0  0  0     1.120    460  480  500
            0  1  0  0     1.120    461  481  501
            0  0  1  0     1.120    462  482  502
            2  0  0  0     2.000    463  483  503
            1  1  0  0     2.000    464  484  504
            1  0  1  0     2.000    465  485  505
            0  2  0  0     2.000    466  486  506
            0  1  1  0     2.000    467  487  507
            0  0  2  0     2.000    468  488  508

 Cl                                  29
                                  ---------------------------------------------------------------------------
            0  0  0  0    20.300    509
            0  0  0  0    15.250    510
            0  0  0  1     6.250    511
            0  0  0  1     4.450    512
            1  0  0  0     8.850    513
            0  1  0  0     8.850    514
            0  0  1  0     8.850    515
            1  0  0  0     5.050    516
            0  1  0  0     5.050    517
            0  0  1  0     5.050    518
            0  0  0  2     3.450    519
            0  0  0  2     2.300    520
            0  0  0  2     1.600    521
            1  0  0  1     3.350    522
            0  1  0  1     3.350    523
            0  0  1  1     3.350    524
            1  0  0  1     2.050    525
            0  1  0  1     2.050    526
            0  0  1  1     2.050    527
            1  0  0  1     1.200    528
            0  1  0  1     1.200    529
            0  0  1  1     1.200    530
            2  0  0  0     2.000    531
            1  1  0  0     2.000    532
            1  0  1  0     2.000    533
            0  2  0  0     2.000    534
            0  1  1  0     2.000    535
            0  0  2  0     2.000    536

 F                                   30   31   32   33
                                  ---------------------------------------------------------------------------
            0  0  0  0    10.880    537  557  577  597
            0  0  0  0     7.700    538  558  578  598
            0  0  0  1     3.240    539  559  579  599
            0  0  0  1     1.940    540  560  580  600
            0  0  0  1     0.740    541  561  581  601
            1  0  0  0     4.540    542  562  582  602
            0  1  0  0     4.540    543  563  583  603
            0  0  1  0     4.540    544  564  584  604
            1  0  0  0     2.300    545  565  585  605
            0  1  0  0     2.300    546  566  586  606
            0  0  1  0     2.300    547  567  587  607
            1  0  0  0     1.240    548  568  588  608
            0  1  0  0     1.240    549  569  589  609
            0  0  1  0     1.240    550  570  590  610
            2  0  0  0     2.000    551  571  591  611
            1  1  0  0     2.000    552  572  592  612
            1  0  1  0     2.000    553  573  593  613
            0  2  0  0     2.000    554  574  594  614
            0  1  1  0     2.000    555  575  595  615
            0  0  2  0     2.000    556  576  596  616

 C                                   34   35   36   37   38   39   40   41   42   43   44   45   46   47
                                  ---------------------------------------------------------------------------
            0  0  0  0     7.680    617  637  657  677  697  717  737  757  777  797  817  837  857  877
            0  0  0  0     5.000    618  638  658  678  698  718  738  758  778  798  818  838  858  878
            0  0  0  1     1.280    619  639  659  679  699  719  739  759  779  799  819  839  859  879
            0  0  0  1     2.100    620  640  660  680  700  720  740  760  780  800  820  840  860  880
            0  0  0  1     4.600    621  641  661  681  701  721  741  761  781  801  821  841  861  881
            1  0  0  0     0.820    622  642  662  682  702  722  742  762  782  802  822  842  862  882
            0  1  0  0     0.820    623  643  663  683  703  723  743  763  783  803  823  843  863  883
            0  0  1  0     0.820    624  644  664  684  704  724  744  764  784  804  824  844  864  884
            1  0  0  0     1.480    625  645  665  685  705  725  745  765  785  805  825  845  865  885
            0  1  0  0     1.480    626  646  666  686  706  726  746  766  786  806  826  846  866  886
            0  0  1  0     1.480    627  647  667  687  707  727  747  767  787  807  827  847  867  887
            1  0  0  0     2.940    628  648  668  688  708  728  748  768  788  808  828  848  868  888
            0  1  0  0     2.940    629  649  669  689  709  729  749  769  789  809  829  849  869  889
            0  0  1  0     2.940    630  650  670  690  710  730  750  770  790  810  830  850  870  890
            2  0  0  0     2.200    631  651  671  691  711  731  751  771  791  811  831  851  871  891
            1  1  0  0     2.200    632  652  672  692  712  732  752  772  792  812  832  852  872  892
            1  0  1  0     2.200    633  653  673  693  713  733  753  773  793  813  833  853  873  893
            0  2  0  0     2.200    634  654  674  694  714  734  754  774  794  814  834  854  874  894
            0  1  1  0     2.200    635  655  675  695  715  735  755  775  795  815  835  855  875  895
            0  0  2  0     2.200    636  656  676  696  716  736  756  776  796  816  836  856  876  896

 H                                   48   49   50   51   52   53   54   55   56   57   58   59   60   61   62
                                     63   64   65   66   67   68   69   70   71   72   73   74   75   76
                                  ---------------------------------------------------------------------------
            0  0  0  0     0.690    897  903  909  915  921  927  933  939  945  951  957  963  969  975  981
                                    987  993  999 1005 1011 1017 1023 1029 1035 1041 1047 1053 1059 1065
            0  0  0  0     0.920    898  904  910  916  922  928  934  940  946  952  958  964  970  976  982
                                    988  994 1000 1006 1012 1018 1024 1030 1036 1042 1048 1054 1060 1066
            0  0  0  0     1.580    899  905  911  917  923  929  935  941  947  953  959  965  971  977  983
                                    989  995 1001 1007 1013 1019 1025 1031 1037 1043 1049 1055 1061 1067
            1  0  0  0     1.250    900  906  912  918  924  930  936  942  948  954  960  966  972  978  984
                                    990  996 1002 1008 1014 1020 1026 1032 1038 1044 1050 1056 1062 1068
            0  1  0  0     1.250    901  907  913  919  925  931  937  943  949  955  961  967  973  979  985
                                    991  997 1003 1009 1015 1021 1027 1033 1039 1045 1051 1057 1063 1069
            0  0  1  0     1.250    902  908  914  920  926  932  938  944  950  956  962  968  974  980  986
                                    992  998 1004 1010 1016 1022 1028 1034 1040 1046 1052 1058 1064 1070

 P                                   77
                                  ---------------------------------------------------------------------------
            0  0  0  0    18.000   1071
            0  0  0  0    13.350   1072
            0  0  0  1     5.600   1073
            0  0  0  1     4.050   1074
            1  0  0  0     7.450   1075
            0  1  0  0     7.450   1076
            0  0  1  0     7.450   1077
            1  0  0  0     4.100   1078
            0  1  0  0     4.100   1079
            0  0  1  0     4.100   1080
            0  0  0  2     2.700   1081
            0  0  0  2     1.850   1082
            0  0  0  2     1.300   1083
            1  0  0  1     2.300   1084
            0  1  0  1     2.300   1085
            0  0  1  1     2.300   1086
            1  0  0  1     1.350   1087
            0  1  0  1     1.350   1088
            0  0  1  1     1.350   1089
            1  0  0  1     0.850   1090
            0  1  0  1     0.850   1091
            0  0  1  1     0.850   1092
            2  0  0  0     1.900   1093
            1  1  0  0     1.900   1094
            1  0  1  0     1.900   1095
            0  2  0  0     1.900   1096
            0  1  1  0     1.900   1097
            0  0  2  0     1.900   1098

 Total number of charge fitting functions (nprimf)      5433
 Total number of Cartesian basis functions (naos)       1098
 Total number of Cartesian core functions  (ncos)          0

1
 ***************************************************************************************************



                                              ***********************
                                              *  T E C H N I C A L  *
                                              ***********************
  



 =============================================================
 P A R A L L E L I Z A T I O N  and  V E C T O R I Z A T I O N
 =============================================================
  
 Nr of parallel processes:                               16
 Maximum vector length in NumInt loops:                 128



 =====================
 S C F   U P D A T E S
 =====================
  
 Max. nr. of cycles:                               300
 Convergence criterion:                              0.0000010000
   secondary criterion:                              0.0010000000

 Mix parameter (when DIIS does not apply):           0.2000000000
 Mixed ADIIS+SDIIS will be used                  
    Max number of expansion vectors:                10
    Pure ADIIS when Max([F,P]) is above              0.1000000000
    Pure SDIIS when Max([F,P]) is below              0.0010000000
 Automatic ElectronSmearing (in case of problematic SCF convergence) disabled



 =================
 P R E C I S I O N  ***  (General: NumInt, NeglectFunctionTails, ...)  ***
 =================
  

 NumInt:           Target precision:                 8.0000000000
 -------           Initial precision:                8.0000000000
                   Min. precision (optimization):    8.0000000000

 Neglect Functions:          Basis functions:        0.1000000000E-09
 ------------------          Fit functions:          0.1000000000E-09



 ===========================
 L I N E A R   S C A L I N G
 ===========================
  

 Cut-off radii density fit:                        0.1000000000E-11
 Overlap cut-off criterion AO matrix elements:     0.1000000000E-09
 Cut-offs for Coulomb potential and fitted density:0.1000000000E-11
 Cut-off criterion for Coulomb multipole terms:    0.1000000000E-11
 Progressive Convergence parameter:                 0.000000000    
1
 ***************************************************************************************************



                                            ***************************
                                            *  C O M P U T A T I O N  *
                                            ***************************
  

 Number of elements of the density matrix on this node (used, total):     36964    603351



 ===========================================
 Numerical Integration : Fuzzy Cells (Becke)
 ===========================================
  
 Becke grid quality: VERYGOOD       
  
 Lebedev angular grid order:             min:  13 max:  41
 Nr. of radial points:                   min:  64 max: 183

 Total nr. of points:    1856844
 Nr. of blocks:            14507
 Block length:               128
 Nr. of dummy points:         52


 Test of Precision of the Numerical Integration Grid
 ===================================================

 Integral of the Total Core Density:                   0.00000000000000



 ========================
 Density Fitting (zlmFit)
 ========================
  
 ZlmFit Fit Quality: VERYGOOD       
  
 Max L-expansion:                        min:   9 max:  10
 Nr. of radial interpolation points:     min: 120 max: 400



 ======================
 RI Hartree-Fock Scheme
 ======================
  
 Fit Set Quality     : VERYGOOD
 Threshold Quality   : VERYGOOD
 Integration Quality : VERYGOOD
 Fit Generation Method : AUTO
 Response Quality    : DEFAULT
 Is Range Separated  :  F
 
 RIHartreeFock Dependency: number of modified vectors:          67



 =====
 S C F  ***  ScaSCF  ***
 =====
  
 Initial density matrix is calculated as sum of fragments

 CYCLE    1
 SCF Error: norm([F,P])=      3.892035668144, max([F,P])=      2.239867241590
 orbitals (Q,E):
 ---------------
 A :174...193        ( 2.00    -0.3041)  ( 2.00    -0.3015)  ( 2.00    -0.2894)  ( 2.00    -0.2652)
                     ( 2.00    -0.2578)  ( 2.00    -0.2395)  ( 2.00    -0.2346)  ( 2.00    -0.2280)
                     ( 2.00    -0.2099)  ( 2.00    -0.1874)  ( 0.00    -0.0595)  ( 0.00    -0.0403)
                     ( 0.00    -0.0277)  ( 0.00    -0.0086)  ( 0.00    -0.0053)  ( 0.00     0.0025)
                     ( 0.00     0.0072)  ( 0.00     0.0095)  ( 0.00     0.0129)  ( 0.00     0.0158)

 CYCLE    2
   MIX coefficients:  0.8000  0.2000
 SCF Error: norm([F,P])=      0.438254837302, max([F,P])=      0.054480660513
 orbitals (Q,E):
 ---------------
 A :174...184        ( 2.00    -0.3049)  ( 2.00    -0.3042)  ( 2.00    -0.2916)  ( 2.00    -0.2668)
                     ( 2.00    -0.2643)  ( 2.00    -0.2627)  ( 2.00    -0.2569)  ( 2.00    -0.2553)
                     ( 2.00    -0.2278)  ( 2.00    -0.1976)  ( 0.00    -0.0569)

 CYCLE    3
  SDIIS (wt  0.000): -0.1636  1.1636
 A-DIIS (wt  1.000):  0.0000  1.0000
  DIIS coefficients:  0.0000  1.0000
 SCF Error: norm([F,P])=      0.087187337521, max([F,P])=      0.011280798222
 orbitals (Q,E):
 ---------------
 A :174...184        ( 2.00    -0.3066)  ( 2.00    -0.3027)  ( 2.00    -0.2919)  ( 2.00    -0.2820)
                     ( 2.00    -0.2762)  ( 2.00    -0.2752)  ( 2.00    -0.2582)  ( 2.00    -0.2568)
                     ( 2.00    -0.2354)  ( 2.00    -0.2020)  ( 0.00    -0.0522)

 CYCLE    4
  SDIIS (wt  0.000):  0.2052  0.2327  0.5621
 A-DIIS (wt  1.000):  0.0000  0.7269  0.2731
  DIIS coefficients:  0.0000  0.7269  0.2731
 SCF Error: norm([F,P])=      0.190677202732, max([F,P])=      0.021190395000
 orbitals (Q,E):
 ---------------
 A :174...184        ( 2.00    -0.3055)  ( 2.00    -0.3015)  ( 2.00    -0.2888)  ( 2.00    -0.2673)
                     ( 2.00    -0.2637)  ( 2.00    -0.2614)  ( 2.00    -0.2573)  ( 2.00    -0.2538)
                     ( 2.00    -0.2271)  ( 2.00    -0.1982)  ( 0.00    -0.0527)

 CYCLE    5
  SDIIS (wt  0.977): -0.1836  0.4207 -0.2043  0.9672
 A-DIIS (wt  0.023):  0.0000  0.0000  0.0000  1.0000
  DIIS coefficients: -0.1793  0.4110 -0.1996  0.9679
 SCF Error: norm([F,P])=      0.030751552830, max([F,P])=      0.003301083834
 orbitals (Q,E):
 ---------------
 A :174...184        ( 2.00    -0.3063)  ( 2.00    -0.3022)  ( 2.00    -0.2897)  ( 2.00    -0.2697)
                     ( 2.00    -0.2659)  ( 2.00    -0.2631)  ( 2.00    -0.2587)  ( 2.00    -0.2550)
                     ( 2.00    -0.2289)  ( 2.00    -0.1996)  ( 0.00    -0.0533)

 CYCLE    6
  SDIIS (wt  1.000): -0.0938  0.1550 -0.1142  0.4539  0.5991
  DIIS coefficients: -0.0938  0.1550 -0.1142  0.4539  0.5991
 SCF Error: norm([F,P])=      0.010426642578, max([F,P])=      0.000962095568
 orbitals (Q,E):
 ---------------
 A :174...184        ( 2.00    -0.3060)  ( 2.00    -0.3018)  ( 2.00    -0.2893)  ( 2.00    -0.2686)
                     ( 2.00    -0.2649)  ( 2.00    -0.2623)  ( 2.00    -0.2581)  ( 2.00    -0.2543)
                     ( 2.00    -0.2280)  ( 2.00    -0.1989)  ( 0.00    -0.0529)

 CYCLE    7
  SDIIS (wt  1.000): -0.0005 -0.0263  0.0159  0.0117  0.4542  0.5451
  DIIS coefficients: -0.0005 -0.0263  0.0159  0.0117  0.4542  0.5451
 SCF Error: norm([F,P])=      0.008948744780, max([F,P])=      0.000917431009
 orbitals (Q,E):
 ---------------
 A :174...184        ( 2.00    -0.3062)  ( 2.00    -0.3019)  ( 2.00    -0.2895)  ( 2.00    -0.2693)
                     ( 2.00    -0.2656)  ( 2.00    -0.2629)  ( 2.00    -0.2584)  ( 2.00    -0.2546)
                     ( 2.00    -0.2285)  ( 2.00    -0.1991)  ( 0.00    -0.0530)

 CYCLE    8
  SDIIS (wt  1.000):  0.0027 -0.0210  0.0137 -0.0134  0.2343  0.3159  0.4677
  DIIS coefficients:  0.0027 -0.0210  0.0137 -0.0134  0.2343  0.3159  0.4677
 SCF Error: norm([F,P])=      0.001685826494, max([F,P])=      0.000137307181
 orbitals (Q,E):
 ---------------
 A :174...184        ( 2.00    -0.3062)  ( 2.00    -0.3019)  ( 2.00    -0.2895)  ( 2.00    -0.2694)
                     ( 2.00    -0.2656)  ( 2.00    -0.2629)  ( 2.00    -0.2584)  ( 2.00    -0.2546)
                     ( 2.00    -0.2286)  ( 2.00    -0.1992)  ( 0.00    -0.0530)

 CYCLE    9
  SDIIS (wt  1.000): -0.0002 -0.0041  0.0014 -0.0079  0.0297  0.0575  0.2627  0.6609
  DIIS coefficients: -0.0002 -0.0041  0.0014 -0.0079  0.0297  0.0575  0.2627  0.6609
 SCF Error: norm([F,P])=      0.000579338945, max([F,P])=      0.000057933454
 orbitals (Q,E):
 ---------------
 A :174...184        ( 2.00    -0.3062)  ( 2.00    -0.3019)  ( 2.00    -0.2895)  ( 2.00    -0.2694)
                     ( 2.00    -0.2656)  ( 2.00    -0.2629)  ( 2.00    -0.2584)  ( 2.00    -0.2546)
                     ( 2.00    -0.2286)  ( 2.00    -0.1991)  ( 0.00    -0.0530)

 CYCLE   10
  SDIIS (wt  1.000): -0.0010  0.0012 -0.0020 -0.0020 -0.0184 -0.0143  0.0869  0.3718  0.5777
  DIIS coefficients: -0.0010  0.0012 -0.0020 -0.0020 -0.0184 -0.0143  0.0869  0.3718  0.5777
 SCF Error: norm([F,P])=      0.000228188045, max([F,P])=      0.000025398419
 orbitals (Q,E):
 ---------------
 A :174...184        ( 2.00    -0.3062)  ( 2.00    -0.3019)  ( 2.00    -0.2895)  ( 2.00    -0.2694)
                     ( 2.00    -0.2656)  ( 2.00    -0.2629)  ( 2.00    -0.2584)  ( 2.00    -0.2546)
                     ( 2.00    -0.2286)  ( 2.00    -0.1991)  ( 0.00    -0.0530)

 CYCLE   11
  SDIIS (wt  1.000): -0.0004  0.0014 -0.0012  0.0004 -0.0142 -0.0172 -0.0072  0.0455  0.3314  0.6616
  DIIS coefficients: -0.0004  0.0014 -0.0012  0.0004 -0.0142 -0.0172 -0.0072  0.0455  0.3314  0.6616
 SCF Error: norm([F,P])=      0.000097549177, max([F,P])=      0.000006577161
 orbitals (Q,E):
 ---------------
 A :174...184        ( 2.00    -0.3062)  ( 2.00    -0.3019)  ( 2.00    -0.2895)  ( 2.00    -0.2694)
                     ( 2.00    -0.2656)  ( 2.00    -0.2629)  ( 2.00    -0.2584)  ( 2.00    -0.2546)
                     ( 2.00    -0.2286)  ( 2.00    -0.1991)  ( 0.00    -0.0530)

 CYCLE   12
  SDIIS (wt  1.000):  0.0004 -0.0003  0.0002 -0.0052 -0.0071 -0.0144 -0.0277  0.1200  0.3944  0.5396
  DIIS coefficients:  0.0004 -0.0003  0.0002 -0.0052 -0.0071 -0.0144 -0.0277  0.1200  0.3944  0.5396
 SCF Error: norm([F,P])=      0.000046328837, max([F,P])=      0.000004074937
 orbitals (Q,E):
 ---------------
 A :174...184        ( 2.00    -0.3062)  ( 2.00    -0.3019)  ( 2.00    -0.2895)  ( 2.00    -0.2694)
                     ( 2.00    -0.2656)  ( 2.00    -0.2629)  ( 2.00    -0.2584)  ( 2.00    -0.2546)
                     ( 2.00    -0.2286)  ( 2.00    -0.1991)  ( 0.00    -0.0530)

 CYCLE   13
  SDIIS (wt  1.000): -0.0000  0.0002  0.0007  0.0005 -0.0026 -0.0157  0.0115  0.0837  0.2893  0.6324
  DIIS coefficients: -0.0000  0.0002  0.0007  0.0005 -0.0026 -0.0157  0.0115  0.0837  0.2893  0.6324
 SCF Error: norm([F,P])=      0.000020289615, max([F,P])=      0.000001846354
 orbitals (Q,E):
 ---------------
 A :174...184        ( 2.00    -0.3062)  ( 2.00    -0.3019)  ( 2.00    -0.2895)  ( 2.00    -0.2694)
[...]
     450       24.8573         0.000       
     449       24.7640         0.000       
     448       24.6693         0.000       
     447       24.5225         0.000       
     446       24.3837         0.000       
     445       24.3566         0.000       
     444       24.1633         0.000       
     443       23.7777         0.000       
     442       23.7354         0.000       
     441       23.5901         0.000       
     440       23.4054         0.000       
     439       23.2640         0.000       
     438       23.1862         0.000       
     437       22.9188         0.000       
     436       22.8315         0.000       
     435       22.7082         0.000       
     434       22.5887         0.000       
     433       22.4804         0.000       
     432       22.4240         0.000       
     431       22.3316         0.000       
     430       22.1456         0.000       
     429       22.0150         0.000       
     428       21.9301         0.000       
     427       21.7038         0.000       
     426       21.5453         0.000       
     425       21.4922         0.000       
     424       21.3572         0.000       
     423       21.3103         0.000       
     422       21.1832         0.000       
     421       20.9521         0.000       
     420       20.8458         0.000       
     419       20.7593         0.000       
     418       20.6454         0.000       
     417       20.5204         0.000       
     416       20.4952         0.000       
     415       20.3291         0.000       
     414       20.2153         0.000       
     413       20.0107         0.000       
     412       19.9535         0.000       
     411       19.8889         0.000       
     410       19.6831         0.000       
     409       19.6526         0.000       
     408       19.5570         0.000       
     407       19.4351         0.000       
     406       19.2472         0.000       
     405       18.9836         0.000       
     404       18.9065         0.000       
     403       18.7806         0.000       
     402       18.7621         0.000       
     401       18.6284         0.000       
     400       18.4600         0.000       
     399       18.3369         0.000       
     398       18.2629         0.000       
     397       18.0981         0.000       
     396       18.0274         0.000       
     395       17.8895         0.000       
     394       17.8665         0.000       
     393       17.5948         0.000       
     392       17.5509         0.000       
     391       17.3974         0.000       
     390       17.3303         0.000       
     389       17.3088         0.000       
     388       17.2175         0.000       
     387       17.1176         0.000       
     386       16.9960         0.000       
     385       16.9089         0.000       
     384       16.7595         0.000       
     383       16.6556         0.000       
     382       16.6281         0.000       
     381       16.4443         0.000       
     380       16.2605         0.000       
     379       16.2397         0.000       
     378       16.1674         0.000       
     377       16.0628         0.000       
     376       16.0322         0.000       
     375       15.9069         0.000       
     374       15.8038         0.000       
     373       15.6658         0.000       
     372       15.5820         0.000       
     371       15.5447         0.000       
     370       15.4540         0.000       
     369       15.2567         0.000       
     368       15.1845         0.000       
     367       15.1351         0.000       
     366       15.1149         0.000       
     365       14.8879         0.000       
     364       14.8780         0.000       
     363       14.7016         0.000       
     362       14.6364         0.000       
     361       14.5705         0.000       
     360       14.4673         0.000       
     359       14.4253         0.000       
     358       14.3197         0.000       
     357       14.2031         0.000       
     356       14.1661         0.000       
     355       14.1002         0.000       
     354       13.9687         0.000       
     353       13.8753         0.000       
     352       13.7874         0.000       
     351       13.7376         0.000       
     350       13.5560         0.000       
     349       13.3936         0.000       
     348       13.2699         0.000       
     347       13.2149         0.000       
     346       13.1158         0.000       
     345       13.0964         0.000       
     344       12.9595         0.000       
     343       12.9139         0.000       
     342       12.8363         0.000       
     341       12.6928         0.000       
     340       12.6280         0.000       
     339       12.6094         0.000       
     338       12.4618         0.000       
     337       12.4009         0.000       
     336       12.2957         0.000       
     335       12.2335         0.000       
     334       12.1082         0.000       
     333       12.0486         0.000       
     332       12.0098         0.000       
     331       11.8899         0.000       
     330       11.8037         0.000       
     329       11.7598         0.000       
     328       11.6850         0.000       
     327       11.5643         0.000       
     326       11.5071         0.000       
     325       11.3960         0.000       
     324       11.3335         0.000       
     323       11.2999         0.000       
     322       11.2135         0.000       
     321       11.1761         0.000       
     320       11.1343         0.000       
     319       11.0397         0.000       
     318       10.9364         0.000       
     317       10.9195         0.000       
     316       10.8460         0.000       
     315       10.7278         0.000       
     314       10.6577         0.000       
     313       10.5126         0.000       
     312       10.3943         0.000       
     311       10.2561         0.000       
     310       10.1771         0.000       
     309       10.1083         0.000       
     308       10.0797         0.000       
     307        9.9555         0.000       
     306        9.8718         0.000       
     305        9.7432         0.000       
     304        9.6856         0.000       
     303        9.6105         0.000       
     302        9.5564         0.000       
     301        9.5324         0.000       
     300        9.4164         0.000       
     299        9.3479         0.000       
     298        9.1792         0.000       
     297        9.0983         0.000       
     296        9.0508         0.000       
     295        9.0350         0.000       
     294        8.8975         0.000       
     293        8.6787         0.000       
     292        8.6198         0.000       
     291        8.5672         0.000       
     290        8.4353         0.000       
     289        8.2960         0.000       
     288        8.2572         0.000       
     287        8.0873         0.000       
     286        7.9999         0.000       
     285        7.9568         0.000       
     284        7.8143         0.000       
     283        7.7502         0.000       
     282        7.6349         0.000       
     281        7.4953         0.000       
     280        7.4435         0.000       
     279        7.3986         0.000       
     278        7.2434         0.000       
     277        7.2217         0.000       
     276        7.1350         0.000       
     275        7.0254         0.000       
     274        7.0008         0.000       
     273        6.9441         0.000       
     272        6.8496         0.000       
     271        6.7289         0.000       
     270        6.6980         0.000       
     269        6.6402         0.000       
     268        6.6027         0.000       
     267        6.4589         0.000       
     266        6.3871         0.000       
     265        6.2566         0.000       
     264        6.2165         0.000       
     263        6.1631         0.000       
     262        6.0831         0.000       
     261        5.9881         0.000       
     260        5.9269         0.000       
     259        5.8181         0.000       
     258        5.7553         0.000       
     257        5.7008         0.000       
     256        5.5324         0.000       
     255        5.4514         0.000       
     254        5.3877         0.000       
     253        5.3437         0.000       
     252        5.2756         0.000       
     251        5.2023         0.000       
     250        5.1211         0.000       
     249        5.0564         0.000       
     248        5.0074         0.000       
     247        4.9171         0.000       
     246        4.7930         0.000       
     245        4.7081         0.000       
     244        4.6333         0.000       
     243        4.5746         0.000       
     242        4.4852         0.000       
     241        4.4631         0.000       
     240        4.2159         0.000       
     239        4.1982         0.000       
     238        4.1749         0.000       
     237        4.1084         0.000       
     236        3.9175         0.000       
     235        3.8790         0.000       
     234        3.7450         0.000       
     233        3.6895         0.000       
     232        3.6630         0.000       
     231        3.6181         0.000       
     230        3.5293         0.000       
     229        3.4809         0.000       
     228        3.3917         0.000       
     227        3.2767         0.000       
     226        3.1339         0.000       
     225        3.1064         0.000       
     224        3.0298         0.000       
     223        3.0210         0.000       
     222        2.9190         0.000       
     221        2.8187         0.000       
     220        2.7355         0.000       
     219        2.6528         0.000       
     218        2.6266         0.000       
     217        2.4884         0.000       
     216        2.4265         0.000       
     215        2.4147         0.000       
     214        2.2723         0.000       
     213        2.2424         0.000       
     212        2.1145         0.000       
     211        2.0795         0.000       
     210        1.9846         0.000       
     209        1.9793         0.000       
     208        1.9375         0.000       
     207        1.8066         0.000       
     206        1.7657         0.000       
     205        1.6519         0.000       
     204        1.5969         0.000       
     203        1.4358         0.000       
     202        1.3979         0.000       
     201        1.2556         0.000       
     200        1.1697         0.000       
     199        1.0920         0.000       
     198        0.9693         0.000       
     197        0.8359         0.000       
     196        0.7511         0.000       
     195        0.5562         0.000       
     194        0.5447         0.000       
     193        0.4799         0.000       
     192        0.4175         0.000       
     191        0.2614         0.000       
     190        0.1964         0.000       
     189        0.1009         0.000       
     188       -0.0130         0.000       
     187       -0.1445         0.000       
     186       -0.6329         0.000       
     185       -1.2613         0.000       
     184       -1.4414         0.000 < LUMO
     183       -5.4189         2.000 < HOMO
     182       -6.2196         2.000       
     181       -6.9288         2.000       
     180       -7.0310         2.000       
     179       -7.1545         2.000       
     178       -7.2278         2.000       
     177       -7.3302         2.000       
     176       -7.8768         2.000       
     175       -8.2145         2.000       
     174       -8.3318         2.000       
     173       -8.4792         2.000       
     172       -8.5342         2.000       
     171       -8.6010         2.000       
     170       -8.8596         2.000       
     169       -8.9141         2.000       
     168       -9.0267         2.000       
     167       -9.1302         2.000       
     166       -9.4367         2.000       
     165       -9.5964         2.000       
     164       -9.6261         2.000       
     163       -9.6368         2.000       
     162       -9.6857         2.000       
     161       -9.8127         2.000       
     160       -9.9174         2.000       
     159       -9.9419         2.000       
     158       -9.9550         2.000       
     157      -10.1128         2.000       
     156      -10.1443         2.000       
     155      -10.2057         2.000       
     154      -10.3295         2.000       
     153      -10.5100         2.000       
     152      -10.5548         2.000       
     151      -10.6962         2.000       
     150      -10.7926         2.000       
     149      -10.9312         2.000       
     148      -10.9523         2.000       
     147      -11.0195         2.000       
     146      -11.0968         2.000       
     145      -11.1393         2.000       
     144      -11.3848         2.000       
     143      -11.4244         2.000       
     142      -11.5712         2.000       
     141      -11.6256         2.000       
     140      -11.7331         2.000       
     139      -11.9168         2.000       
     138      -12.0869         2.000       
     137      -12.3311         2.000       
     136      -12.3659         2.000       
     135      -12.4148         2.000       
     134      -12.4361         2.000       
     133      -12.4720         2.000       
     132      -12.6000         2.000       
     131      -12.6188         2.000       
     130      -12.7451         2.000       
     129      -12.8391         2.000       
     128      -12.8760         2.000       
     127      -12.9583         2.000       
     126      -13.0660         2.000       
     125      -13.1832         2.000       
     124      -13.2092         2.000       
     123      -13.4404         2.000       
     122      -13.5035         2.000       
     121      -13.5251         2.000       
     120      -13.5415         2.000       
     119      -13.7230         2.000       
     118      -13.7955         2.000       
     117      -13.9685         2.000       
     116      -14.1483         2.000       
     115      -14.2994         2.000       
     114      -14.5932         2.000       
     113      -14.7525         2.000       
     112      -14.9688         2.000       
     111      -15.1067         2.000       
     110      -15.2915         2.000       
     109      -15.4287         2.000       
     108      -15.8323         2.000       
     107      -15.9300         2.000       
     106      -16.0697         2.000       
     105      -16.2746         2.000       
     104      -16.3526         2.000       
     103      -16.9460         2.000       
     102      -17.0969         2.000       
     101      -17.3985         2.000       
     100      -17.4372         2.000       
      99      -17.6481         2.000       
      98      -18.5547         2.000       
      97      -18.7486         2.000       
      96      -18.9318         2.000       
      95      -19.4098         2.000       
      94      -19.6037         2.000       
      93      -19.7302         2.000       
      92      -19.8208         2.000       
      91      -19.9747         2.000       
      90      -20.4711         2.000       
      89      -21.1674         2.000       
      88      -21.2021         2.000       
      87      -21.3648         2.000       
      86      -21.5428         2.000       
      85      -21.7725         2.000       
      84      -22.6682         2.000       
      83      -23.0947         2.000       
      82      -23.4854         2.000       
      81      -23.9663         2.000       
      80      -24.4863         2.000       
      79      -24.6504         2.000       
      78      -24.8391         2.000       
      77      -26.9660         2.000       
      76      -28.3949         2.000       
      75      -30.4415         2.000       
      74      -31.3916         2.000       
      73      -34.8599         2.000       
      72      -35.0389         2.000       
      71      -35.2804         2.000       
      70      -35.5189         2.000       
      69      -56.9820         2.000       
      68      -57.4673         2.000       
      67      -57.7977         2.000       
      66      -92.7749         2.000       
      65     -129.3201         2.000       
      64     -129.4002         2.000       
      63     -129.4024         2.000       
      62     -166.1093         2.000       
      61     -166.1215         2.000       
      60     -166.1630         2.000       
      59     -181.1863         2.000       
      58     -197.6057         2.000       
      57     -197.6180         2.000       
      56     -197.9001         2.000       
      55     -223.6784         2.000       
      54     -261.2530         2.000       
      53     -278.2359         2.000       
      52     -278.3434         2.000       
      51     -278.4091         2.000       
      50     -278.4246         2.000       
      49     -278.4705         2.000       
      48     -278.5019         2.000       
      47     -278.5181         2.000       
      46     -278.5285         2.000       
      45     -278.5628         2.000       
      44     -278.5714         2.000       
      43     -278.6834         2.000       
      42     -278.8729         2.000       
      41     -278.8943         2.000       
      40     -278.9182         2.000       
      39     -279.1075         2.000       
      38     -279.2936         2.000       
      37     -279.4680         2.000       
      36     -279.5234         2.000       
      35     -279.5342         2.000       
      34     -280.0131         2.000       
      33     -280.2630         2.000       
      32     -280.3735         2.000       
      31     -280.4248         2.000       
      30     -280.9101         2.000       
      29     -281.4051         2.000       
      28     -281.4419         2.000       
      27     -281.4664         2.000       
      26     -281.4818         2.000       
      25     -337.0231         2.000       
      24     -337.0375         2.000       
      23     -337.1024         2.000       
      22     -337.1894         2.000       
      21     -337.1966         2.000       
      20     -393.4442         2.000       
      19     -523.0894         2.000       
      18     -523.1605         2.000       
      17     -524.2258         2.000       
      16     -530.8715         2.000       
      15     -531.0511         2.000       
      14     -531.1320         2.000       
      13     -652.8534         2.000       
      12     -675.3374         2.000       
      11     -675.6005         2.000       
      10     -675.6449         2.000       
       9     -675.6449         2.000       
       8    -2107.2605         2.000       
       7    -2435.4545         2.000       
       6    -2777.4768         2.000       
       5    -3188.9973         2.000       
       4    -3189.0797         2.000       
       3    -3189.1024         2.000       
       2    -3560.0049         2.000       
       1   -24223.2382         2.000       

AMS application finished. Exiting.
NORMAL TERMINATION
     Total cpu time:    3318.14
  Total system time:      37.26
 Total elapsed time:    3372.72
NORMAL TERMINATION
