

 Parallel Execution: Process Information
 ==============================================================================
 Rank   Node Name                              NodeID   MyNodeRank  NodeMaster
    0   eu-g5-012-2                               0          0          0
    1   eu-g5-012-2                               1          0          1
    2   eu-g5-012-2                               0          1         -1
    3   eu-g5-012-2                               1          1         -1
    4   eu-g5-012-2                               0          2         -1
    5   eu-g5-012-2                               1          2         -1
    6   eu-g5-012-2                               0          3         -1
    7   eu-g5-012-2                               1          3         -1
    8   eu-g5-012-2                               0          4         -1
    9   eu-g5-012-2                               1          4         -1
   10   eu-g5-012-2                               0          5         -1
   11   eu-g5-012-2                               1          5         -1
   12   eu-g5-012-2                               2          0          2
   13   eu-g5-012-2                               3          0          3
   14   eu-g5-012-2                               2          1         -1
   15   eu-g5-012-2                               3          1         -1
 ==============================================================================


May use up to 30759MB of RAM as shared memory on node 0
May use up to 30759MB of RAM as shared memory on node 1
May use up to 30759MB of RAM as shared memory on node 2
May use up to 30759MB of RAM as shared memory on node 3

 *******************************************************************************
 *                                                                             *
 *  --------------------------------                                           *
 *   Amsterdam Modeling Suite (AMS)              2023.101                      *
 *  --------------------------------                                           *
 *                                               r111868 2023-03-31            *
 *                                                                             *
 *                                                                             *
 *                              =================                              *
 *                              |               |                              *
 *                              |     A M S     |                              *
 *                              |               |                              *
 *                              =================                              *
 *                                                                             *
 *                                                                             *
 *   Online information and documentation:  https://www.scm.com/support/       *
 *   E-mail:  support@scm.com   info@scm.com                                   *
 *                                                                             *
 *   Scientific publications using AMS results must be properly referenced     *
 *   See the User Manuals (or the web site) for recommended citations          *
 *   The terms and conditions of the End User License Agreement apply to       *
 *   the use of AMS, https://www.scm.com/license-terms/                        *
 *                                                                             *
 ***********************  x86_64_linux_intel / openmpi  ************************
 
 Licensed to: D-CHAB / ETH site license / Zurich / Switzerland 2023-06-23 15:55:12
 SCM User ID: u7035
  
 AMS 2023.101  RunTime: May25-2024 09:19:17  ShM Nodes: 4  Procs: 16

 AMS jobname: ts_pmes3
 AMS jobid  : 2069669287

 Start   directory: /cluster/scratch/sroediger/michael/eda/
 Results directory: /cluster/scratch/sroediger/michael/eda/ts_pmes3.results/
 Scratch directory: /scratch/amstmp_ts_pmes3_kid0.2069669287/


 Communication costs MPI_COMM_WORLD:      8.525 usec per message,   0.0163 usec per 8-byte item
 Communication costs for intra-node:      3.039 usec per message,   0.0150 usec per 8-byte item

 RNG seed: 414327694 511183925 -1932889599 -1922137422 -1209205302 1809066176 1224435196 -1919474456



                     *************************************************************************
                     *  ADF 2023.101  RunTime: May25-2024 09:19:18  ShM Nodes: 4  Procs: 16  *
                     *************************************************************************
  

       ****************************
       * SINGLE POINT CALCULATION *
       ****************************
 
--------
Geometry
--------
Formula: C41H41ClF4NO3PPdS
Atoms
  Index Symbol   x (angstrom)   y (angstrom)   z (angstrom)
      1     Pd    -0.08310200    -0.40400900    -0.84612100       region=pdsubstrate adf.f=pdsubstrate
      2      C    -1.45319900     0.98655800    -0.23061300       region=pdsubstrate adf.f=pdsubstrate
      3      C    -1.10599200     2.30566500    -0.56160900       region=pdsubstrate adf.f=pdsubstrate
      4      H    -0.54608600     2.52048500    -1.47021000       region=pdsubstrate adf.f=pdsubstrate
      5      C    -1.42234200     3.32793700     0.32049400       region=pdsubstrate adf.f=pdsubstrate
      6      H    -1.08954900     4.34894900     0.12585700       region=pdsubstrate adf.f=pdsubstrate
      7      C    -2.14234700     3.07309300     1.50098900       region=pdsubstrate adf.f=pdsubstrate
      8      C    -2.63092100     1.79042700     1.74694700       region=pdsubstrate adf.f=pdsubstrate
      9      H    -3.28639300     1.58255900     2.59057200       region=pdsubstrate adf.f=pdsubstrate
     10      C    -2.33280700     0.75261800     0.84982700       region=pdsubstrate adf.f=pdsubstrate
     11      C    -2.97827600    -0.54526200     0.78959800       region=pdsubstrate adf.f=pdsubstrate
     12      C    -3.69453300    -1.21199500     1.77838400       region=pdsubstrate adf.f=pdsubstrate
     13      C    -4.28292800    -2.44385000     1.51359600       region=pdsubstrate adf.f=pdsubstrate
     14      C    -4.14078400    -3.02568500     0.25271400       region=pdsubstrate adf.f=pdsubstrate
     15      C    -3.40741200    -2.38861900    -0.74779600       region=pdsubstrate adf.f=pdsubstrate
     16      C    -2.85769200    -1.13282500    -0.49395800       region=pdsubstrate adf.f=pdsubstrate
     17      N    -2.05676000    -0.39404700    -1.38041100       region=pdsubstrate adf.f=pdsubstrate
     18      S    -2.62001700     0.18827900    -2.84115800       region=pdsubstrate adf.f=pdsubstrate
     19      O    -1.50020800     0.90525100    -3.43705900       region=pdsubstrate adf.f=pdsubstrate
     20      O    -3.33556000    -0.84743500    -3.55884900       region=pdsubstrate adf.f=pdsubstrate
     21      C    -3.81189900     1.47876300    -2.41149000       region=pdsubstrate adf.f=pdsubstrate
     22     Cl    -5.24367700     0.85973000    -1.59887600       region=pdsubstrate adf.f=pdsubstrate
     23      H    -4.08831600     1.92689900    -3.37583300       region=pdsubstrate adf.f=pdsubstrate
     24      H    -3.29829700     2.20931500    -1.77295100       region=pdsubstrate adf.f=pdsubstrate
     25      F    -3.22176100    -3.02211400    -1.88913200       region=pdsubstrate adf.f=pdsubstrate
     26      F    -4.66262000    -4.21987500     0.02765200       region=pdsubstrate adf.f=pdsubstrate
     27      F    -4.95466200    -3.08368000     2.45763300       region=pdsubstrate adf.f=pdsubstrate
     28      F    -3.81130000    -0.70230000     3.00307400       region=pdsubstrate adf.f=pdsubstrate
     29      O    -2.35048900     4.13544200     2.31054700       region=pdsubstrate adf.f=pdsubstrate
     30      C    -3.09077400     3.94279900     3.48108100       region=pdsubstrate adf.f=pdsubstrate
     31      H    -2.62374400     3.19167600     4.14348100       region=pdsubstrate adf.f=pdsubstrate
     32      H    -4.12701600     3.62497200     3.26708800       region=pdsubstrate adf.f=pdsubstrate
     33      H    -3.11801900     4.90850000     4.00187200       region=pdsubstrate adf.f=pdsubstrate
     34      P     2.01693700    -0.05408100     0.08138900       region=ligand adf.f=ligand
     35      C     2.39839000    -0.88107000     1.70190800       region=ligand adf.f=ligand
     36      C     1.37163800    -1.56268000     2.40557100       region=ligand adf.f=ligand
     37      C     3.72023800    -0.94371400     2.20905800       region=ligand adf.f=ligand
     38      C     1.70479500    -2.33373000     3.52414700       region=ligand adf.f=ligand
     39      C     3.99409700    -1.72492000     3.33373600       region=ligand adf.f=ligand
     40      C     3.00863500    -2.45168500     3.99747200       region=ligand adf.f=ligand
     41      H     0.89925900    -2.85297000     4.05062300       region=ligand adf.f=ligand
     42      H     5.02119100    -1.75027100     3.70943000       region=ligand adf.f=ligand
     43      C     2.13025600     1.77675200     0.14012700       region=ligand adf.f=ligand
     44      C     2.04727500     2.45419000    -1.10674500       region=ligand adf.f=ligand
     45      C     2.07454400     2.52756800     1.33844900       region=ligand adf.f=ligand
     46      C     2.05509200     3.85125000    -1.11971200       region=ligand adf.f=ligand
     47      C     2.06560900     3.92289300     1.25924500       region=ligand adf.f=ligand
     48      C     2.08537700     4.61100400     0.04721200       region=ligand adf.f=ligand
     49      H     2.00896400     4.35914100    -2.08748400       region=ligand adf.f=ligand
     50      H     2.02163300     4.49132500     2.19264900       region=ligand adf.f=ligand
     51      C     3.31973000    -0.77842300    -1.02565700       region=ligand adf.f=ligand
     52      C     4.48693400    -0.15189000    -1.52277500       region=ligand adf.f=ligand
     53      C     3.05476300    -2.12542200    -1.40526000       region=ligand adf.f=ligand
     54      C     5.33521400    -0.87466000    -2.37454900       region=ligand adf.f=ligand
     55      C     3.94116600    -2.79500600    -2.24570300       region=ligand adf.f=ligand
     56      C     5.09138000    -2.18844700    -2.75296700       region=ligand adf.f=ligand
     57      H     6.23305500    -0.37323000    -2.74867100       region=ligand adf.f=ligand
     58      H     3.71790600    -3.83032500    -2.51878700       region=ligand adf.f=ligand
     59      C     1.87707400     1.75193000    -2.42230700       region=ligand adf.f=ligand
     60      H     0.96456500     1.12155200    -2.41510600       region=ligand adf.f=ligand
     61      H     1.76981800     2.48115900    -3.23605000       region=ligand adf.f=ligand
     62      H     2.70185000     1.07451800    -2.67650200       region=ligand adf.f=ligand
     63      C    -0.08646900    -1.47963100     2.07051100       region=ligand adf.f=ligand
     64      H    -0.31248200    -1.86109700     1.05933000       region=ligand adf.f=ligand
     65      H    -0.67810800    -2.05844500     2.79229800       region=ligand adf.f=ligand
     66      H    -0.45233500    -0.44350000     2.09033500       region=ligand adf.f=ligand
     67      C     1.84197100    -2.88661600    -0.94993200       region=ligand adf.f=ligand
     68      H     0.90375500    -2.43195700    -1.33324900       region=ligand adf.f=ligand
     69      H     1.87029000    -3.91691300    -1.32907600       region=ligand adf.f=ligand
     70      H     1.75619100    -2.93017200     0.14538900       region=ligand adf.f=ligand
     71      C     4.93905600     1.25724300    -1.24032900       region=ligand adf.f=ligand
     72      H     4.80659100     1.88808800    -2.13377700       region=ligand adf.f=ligand
     73      H     4.40439300     1.74844500    -0.42635700       region=ligand adf.f=ligand
     74      H     6.01282700     1.26055100    -1.00138800       region=ligand adf.f=ligand
     75      C     6.01270500    -2.93044500    -3.67425300       region=ligand adf.f=ligand
     76      H     6.31490000    -3.89718600    -3.24252800       region=ligand adf.f=ligand
     77      H     5.51746600    -3.14745200    -4.63449200       region=ligand adf.f=ligand
     78      H     6.92232100    -2.35249100    -3.88867300       region=ligand adf.f=ligand
     79      C     4.86287700    -0.15830300     1.64278100       region=ligand adf.f=ligand
     80      H     5.30697400    -0.65879200     0.77004000       region=ligand adf.f=ligand
     81      H     4.54834900     0.84283300     1.32371600       region=ligand adf.f=ligand
     82      H     5.65112200    -0.03884600     2.39862900       region=ligand adf.f=ligand
     83      C     3.33826500    -3.32300600     5.17176200       region=ligand adf.f=ligand
     84      H     3.61910100    -4.33553000     4.83666600       region=ligand adf.f=ligand
     85      H     4.18673100    -2.92320100     5.74577900       region=ligand adf.f=ligand
     86      H     2.47965700    -3.42950400     5.85001500       region=ligand adf.f=ligand
     87      C     1.94803300     1.92443300     2.70970400       region=ligand adf.f=ligand
     88      H     1.09089000     1.23884200     2.76938900       region=ligand adf.f=ligand
     89      H     2.83390400     1.35234900     3.01543700       region=ligand adf.f=ligand
     90      H     1.78789200     2.71972900     3.44994800       region=ligand adf.f=ligand
     91      C     2.11104300     6.10998800     0.00839500       region=ligand adf.f=ligand
     92      H     1.82214100     6.49346000    -0.98039500       region=ligand adf.f=ligand
     93      H     1.43062800     6.54220600     0.75766100       region=ligand adf.f=ligand
     94      H     3.12116000     6.49274000     0.22989500       region=ligand adf.f=ligand
 
Total System Charge             0.00000
Bonding info available!
 
 
----------------
ADF Engine Input
----------------
 
 Basis
 Type TZP
 Core None
 End
 Fragments
 ligand ./ts_pmes3.ligand.results/adf.rkf
 pdsubstrate ./ts_pmes3.pdsubstrate.results/adf.rkf
 End
 XC
 Hybrid PBE0
 DISPERSION Grimme3 BJDAMP
 End
 NumericalQuality VeryGood
 

 Title: *** (NO TITLE) ***

 *** adf ***



 ===========================
 A T T A C H E D   F I L E S
 ===========================
  



 ===============================
 M O D E L   P A R A M E T E R S
 ===============================
  
 DENSITY FUNCTIONAL POTENTIAL (scf)
    Hybrid:                            PBE0                                    == Not Default ==

 SPIN  (restricted / unrestr.)
    Molecule:                          Restricted                               
    Fragments:                         Restricted                               

 OTHER ASPECTS
    Relativistic Corrections:          scalar (ZORA,MAPA)                       

    Nuclear Charge Density Model:      Point Charge Nuclei                      
    Core Treatment:                    Frozen Orbital(s)                        

    Hyperfine or Zeeman Interaction:   ---                                      

 Settings for Grimme D3 dispersion correction

      damping                        BJ
      s6                          1.000
      s8                          1.218
      a1                          0.414
      a2                          4.859

 Other (technical) parameters

      alpha                      14.000
      version                         4
 


 Fragment File(s)
 ----------------
 pdsubstrate:
         file : ./ts_pmes3.pdsubstrate.results/adf.rkf
         jobid: 1686716240
         title: *** adf ***
 ligand:
         file : ./ts_pmes3.ligand.results/adf.rkf
         jobid: 1785848061
         title: *** adf ***



 ===============
 G E O M E T R Y  ***  3D  Molecule  ***
 ===============
  

 ATOMS
 =====                            X Y Z                    CHARGE
                                (Angstrom)             Nucl     +Core       At.Mass
                       --------------------------    ----------------       -------
    1  Pd             -0.0831   -0.4040   -0.8461     46.00     46.00      105.9035
    2  C              -1.4532    0.9866   -0.2306      6.00      6.00       12.0000
    3  C              -1.1060    2.3057   -0.5616      6.00      6.00       12.0000
    4  H              -0.5461    2.5205   -1.4702      1.00      1.00        1.0078
    5  C              -1.4223    3.3279    0.3205      6.00      6.00       12.0000
    6  H              -1.0895    4.3489    0.1259      1.00      1.00        1.0078
    7  C              -2.1423    3.0731    1.5010      6.00      6.00       12.0000
    8  C              -2.6309    1.7904    1.7469      6.00      6.00       12.0000
    9  H              -3.2864    1.5826    2.5906      1.00      1.00        1.0078
   10  C              -2.3328    0.7526    0.8498      6.00      6.00       12.0000
   11  C              -2.9783   -0.5453    0.7896      6.00      6.00       12.0000
   12  C              -3.6945   -1.2120    1.7784      6.00      6.00       12.0000
   13  C              -4.2829   -2.4438    1.5136      6.00      6.00       12.0000
   14  C              -4.1408   -3.0257    0.2527      6.00      6.00       12.0000
   15  C              -3.4074   -2.3886   -0.7478      6.00      6.00       12.0000
   16  C              -2.8577   -1.1328   -0.4940      6.00      6.00       12.0000
   17  N              -2.0568   -0.3940   -1.3804      7.00      7.00       14.0031
   18  S              -2.6200    0.1883   -2.8412     16.00     16.00       31.9721
   19  O              -1.5002    0.9053   -3.4371      8.00      8.00       15.9949
   20  O              -3.3356   -0.8474   -3.5588      8.00      8.00       15.9949
   21  C              -3.8119    1.4788   -2.4115      6.00      6.00       12.0000
   22  Cl             -5.2437    0.8597   -1.5989     17.00     17.00       34.9689
   23  H              -4.0883    1.9269   -3.3758      1.00      1.00        1.0078
   24  H              -3.2983    2.2093   -1.7730      1.00      1.00        1.0078
   25  F              -3.2218   -3.0221   -1.8891      9.00      9.00       18.9984
   26  F              -4.6626   -4.2199    0.0277      9.00      9.00       18.9984
   27  F              -4.9547   -3.0837    2.4576      9.00      9.00       18.9984
   28  F              -3.8113   -0.7023    3.0031      9.00      9.00       18.9984
   29  O              -2.3505    4.1354    2.3105      8.00      8.00       15.9949
   30  C              -3.0908    3.9428    3.4811      6.00      6.00       12.0000
   31  H              -2.6237    3.1917    4.1435      1.00      1.00        1.0078
   32  H              -4.1270    3.6250    3.2671      1.00      1.00        1.0078
   33  H              -3.1180    4.9085    4.0019      1.00      1.00        1.0078
   34  P               2.0169   -0.0541    0.0814     15.00     15.00       30.9738
   35  C               2.3984   -0.8811    1.7019      6.00      6.00       12.0000
   36  C               1.3716   -1.5627    2.4056      6.00      6.00       12.0000
   37  C               3.7202   -0.9437    2.2091      6.00      6.00       12.0000
   38  C               1.7048   -2.3337    3.5241      6.00      6.00       12.0000
   39  C               3.9941   -1.7249    3.3337      6.00      6.00       12.0000
   40  C               3.0086   -2.4517    3.9975      6.00      6.00       12.0000
   41  H               0.8993   -2.8530    4.0506      1.00      1.00        1.0078
   42  H               5.0212   -1.7503    3.7094      1.00      1.00        1.0078
   43  C               2.1303    1.7768    0.1401      6.00      6.00       12.0000
   44  C               2.0473    2.4542   -1.1067      6.00      6.00       12.0000
   45  C               2.0745    2.5276    1.3384      6.00      6.00       12.0000
   46  C               2.0551    3.8512   -1.1197      6.00      6.00       12.0000
   47  C               2.0656    3.9229    1.2592      6.00      6.00       12.0000
   48  C               2.0854    4.6110    0.0472      6.00      6.00       12.0000
   49  H               2.0090    4.3591   -2.0875      1.00      1.00        1.0078
   50  H               2.0216    4.4913    2.1926      1.00      1.00        1.0078
   51  C               3.3197   -0.7784   -1.0257      6.00      6.00       12.0000
   52  C               4.4869   -0.1519   -1.5228      6.00      6.00       12.0000
   53  C               3.0548   -2.1254   -1.4053      6.00      6.00       12.0000
   54  C               5.3352   -0.8747   -2.3745      6.00      6.00       12.0000
   55  C               3.9412   -2.7950   -2.2457      6.00      6.00       12.0000
   56  C               5.0914   -2.1884   -2.7530      6.00      6.00       12.0000
   57  H               6.2331   -0.3732   -2.7487      1.00      1.00        1.0078
   58  H               3.7179   -3.8303   -2.5188      1.00      1.00        1.0078
   59  C               1.8771    1.7519   -2.4223      6.00      6.00       12.0000
   60  H               0.9646    1.1216   -2.4151      1.00      1.00        1.0078
   61  H               1.7698    2.4812   -3.2361      1.00      1.00        1.0078
   62  H               2.7018    1.0745   -2.6765      1.00      1.00        1.0078
   63  C              -0.0865   -1.4796    2.0705      6.00      6.00       12.0000
   64  H              -0.3125   -1.8611    1.0593      1.00      1.00        1.0078
   65  H              -0.6781   -2.0584    2.7923      1.00      1.00        1.0078
   66  H              -0.4523   -0.4435    2.0903      1.00      1.00        1.0078
   67  C               1.8420   -2.8866   -0.9499      6.00      6.00       12.0000
   68  H               0.9038   -2.4320   -1.3332      1.00      1.00        1.0078
   69  H               1.8703   -3.9169   -1.3291      1.00      1.00        1.0078
   70  H               1.7562   -2.9302    0.1454      1.00      1.00        1.0078
   71  C               4.9391    1.2572   -1.2403      6.00      6.00       12.0000
   72  H               4.8066    1.8881   -2.1338      1.00      1.00        1.0078
   73  H               4.4044    1.7484   -0.4264      1.00      1.00        1.0078
   74  H               6.0128    1.2606   -1.0014      1.00      1.00        1.0078
   75  C               6.0127   -2.9304   -3.6743      6.00      6.00       12.0000
   76  H               6.3149   -3.8972   -3.2425      1.00      1.00        1.0078
   77  H               5.5175   -3.1475   -4.6345      1.00      1.00        1.0078
   78  H               6.9223   -2.3525   -3.8887      1.00      1.00        1.0078
   79  C               4.8629   -0.1583    1.6428      6.00      6.00       12.0000
   80  H               5.3070   -0.6588    0.7700      1.00      1.00        1.0078
   81  H               4.5483    0.8428    1.3237      1.00      1.00        1.0078
   82  H               5.6511   -0.0388    2.3986      1.00      1.00        1.0078
   83  C               3.3383   -3.3230    5.1718      6.00      6.00       12.0000
   84  H               3.6191   -4.3355    4.8367      1.00      1.00        1.0078
   85  H               4.1867   -2.9232    5.7458      1.00      1.00        1.0078
   86  H               2.4797   -3.4295    5.8500      1.00      1.00        1.0078
   87  C               1.9480    1.9244    2.7097      6.00      6.00       12.0000
   88  H               1.0909    1.2388    2.7694      1.00      1.00        1.0078
   89  H               2.8339    1.3523    3.0154      1.00      1.00        1.0078
   90  H               1.7879    2.7197    3.4499      1.00      1.00        1.0078
   91  C               2.1110    6.1100    0.0084      6.00      6.00       12.0000
   92  H               1.8221    6.4935   -0.9804      1.00      1.00        1.0078
   93  H               1.4306    6.5422    0.7577      1.00      1.00        1.0078
   94  H               3.1212    6.4927    0.2299      1.00      1.00        1.0078


 FRAGMENTS
 =========                                     Atoms in this Fragment     Cart. coord.s (Angstrom)
                                               -------------------------------------------------------
    1  pdsubstrate                                       1  Pd          -0.0831   -0.4040   -0.8461
                                                         2  C           -1.4532    0.9866   -0.2306
                                                         3  C           -1.1060    2.3057   -0.5616
                                                         5  C           -1.4223    3.3279    0.3205
                                                         7  C           -2.1423    3.0731    1.5010
                                                         8  C           -2.6309    1.7904    1.7469
                                                        10  C           -2.3328    0.7526    0.8498
                                                        11  C           -2.9783   -0.5453    0.7896
                                                        12  C           -3.6945   -1.2120    1.7784
                                                        13  C           -4.2829   -2.4438    1.5136
                                                        14  C           -4.1408   -3.0257    0.2527
                                                        15  C           -3.4074   -2.3886   -0.7478
                                                        16  C           -2.8577   -1.1328   -0.4940
                                                        21  C           -3.8119    1.4788   -2.4115
                                                        30  C           -3.0908    3.9428    3.4811
                                                         4  H           -0.5461    2.5205   -1.4702
                                                         6  H           -1.0895    4.3489    0.1259
                                                         9  H           -3.2864    1.5826    2.5906
                                                        23  H           -4.0883    1.9269   -3.3758
                                                        24  H           -3.2983    2.2093   -1.7730
                                                        31  H           -2.6237    3.1917    4.1435
                                                        32  H           -4.1270    3.6250    3.2671
                                                        33  H           -3.1180    4.9085    4.0019
                                                        17  N           -2.0568   -0.3940   -1.3804
                                                        18  S           -2.6200    0.1883   -2.8412
                                                        19  O           -1.5002    0.9053   -3.4371
                                                        20  O           -3.3356   -0.8474   -3.5588
                                                        29  O           -2.3505    4.1354    2.3105
                                                        22  Cl          -5.2437    0.8597   -1.5989
                                                        25  F           -3.2218   -3.0221   -1.8891
                                                        26  F           -4.6626   -4.2199    0.0277
                                                        27  F           -4.9547   -3.0837    2.4576
                                                        28  F           -3.8113   -0.7023    3.0031
    2  ligand                                           62  H            2.7018    1.0745   -2.6765
                                                        64  H           -0.3125   -1.8611    1.0593
                                                        65  H           -0.6781   -2.0584    2.7923
                                                        66  H           -0.4523   -0.4435    2.0903
                                                        68  H            0.9038   -2.4320   -1.3332
                                                        69  H            1.8703   -3.9169   -1.3291
                                                        70  H            1.7562   -2.9302    0.1454
                                                        72  H            4.8066    1.8881   -2.1338
                                                        73  H            4.4044    1.7484   -0.4264
                                                        74  H            6.0128    1.2606   -1.0014
                                                        76  H            6.3149   -3.8972   -3.2425
                                                        77  H            5.5175   -3.1475   -4.6345
                                                        78  H            6.9223   -2.3525   -3.8887
                                                        80  H            5.3070   -0.6588    0.7700
                                                        81  H            4.5483    0.8428    1.3237
                                                        82  H            5.6511   -0.0388    2.3986
                                                        84  H            3.6191   -4.3355    4.8367
                                                        85  H            4.1867   -2.9232    5.7458
                                                        86  H            2.4797   -3.4295    5.8500
                                                        88  H            1.0909    1.2388    2.7694
                                                        89  H            2.8339    1.3523    3.0154
                                                        90  H            1.7879    2.7197    3.4499
                                                        92  H            1.8221    6.4935   -0.9804
                                                        93  H            1.4306    6.5422    0.7577
                                                        94  H            3.1212    6.4927    0.2299
                                                        41  H            0.8993   -2.8530    4.0506
                                                        42  H            5.0212   -1.7503    3.7094
                                                        49  H            2.0090    4.3591   -2.0875
                                                        50  H            2.0216    4.4913    2.1926
                                                        57  H            6.2331   -0.3732   -2.7487
                                                        58  H            3.7179   -3.8303   -2.5188
                                                        60  H            0.9646    1.1216   -2.4151
                                                        61  H            1.7698    2.4812   -3.2361
                                                        63  C           -0.0865   -1.4796    2.0705
                                                        67  C            1.8420   -2.8866   -0.9499
                                                        71  C            4.9391    1.2572   -1.2403
                                                        75  C            6.0127   -2.9304   -3.6743
                                                        79  C            4.8629   -0.1583    1.6428
                                                        83  C            3.3383   -3.3230    5.1718
                                                        87  C            1.9480    1.9244    2.7097
                                                        91  C            2.1110    6.1100    0.0084
                                                        35  C            2.3984   -0.8811    1.7019
                                                        36  C            1.3716   -1.5627    2.4056
                                                        37  C            3.7202   -0.9437    2.2091
                                                        38  C            1.7048   -2.3337    3.5241
                                                        39  C            3.9941   -1.7249    3.3337
                                                        40  C            3.0086   -2.4517    3.9975
                                                        43  C            2.1303    1.7768    0.1401
                                                        44  C            2.0473    2.4542   -1.1067
                                                        45  C            2.0745    2.5276    1.3384
                                                        46  C            2.0551    3.8512   -1.1197
                                                        47  C            2.0656    3.9229    1.2592
                                                        48  C            2.0854    4.6110    0.0472
                                                        51  C            3.3197   -0.7784   -1.0257
                                                        52  C            4.4869   -0.1519   -1.5228
                                                        53  C            3.0548   -2.1254   -1.4053
                                                        54  C            5.3352   -0.8747   -2.3745
                                                        55  C            3.9412   -2.7950   -2.2457
                                                        56  C            5.0914   -2.1884   -2.7530
                                                        59  C            1.8771    1.7519   -2.4223
                                                        34  P            2.0169   -0.0541    0.0814



 =====================================
 S Y M M E T R Y ,   E L E C T R O N S
 =====================================
  
 Symmetry: NOSYM

 Irreducible Representations, including subspecies
 -------------------------------------------------
 A


 Configuration of Valence Electrons
 ==================================
 ( determined in the SCF procedure )

 Total:   448

 Net Charge: 0 (Nuclei minus Electrons)

 Aufbau principle for MO occupations will be applied through SCF cycle no.     150
 Thereafter, the program will assign electrons to MOs that are spatially
 similar to the occupied MOs in a "reference" cycle ("KeepOrbitals").
 The reference cycle is always the PREVIOUS cycle: it will evolve with
 the SCF procedure.
1
 ***************************************************************************************************



                                      ****************************************
                                      *  B U I L D : (Fragments, Functions)  *
                                      ****************************************
  

 The individual fragments are copies of the corresponding 'Master' fragments defined on the fragment files.
 However, they may have been rotated (and translated) with respect to the Master. The local coordinate axes
 of each fragment (which define for instance the spatial orientation in the current molecule of a fragment
 P:x orbital) are not necessarily those of the molecule.
 The local frame (if different from the molecular one) is printed to enable an interpretation of the expan-
 sion of an MO in Fragment Orbitals.



                                         *********************************
                                         *  Fragment Type : pdsubstrate  *
                                         *********************************
  

 Fragment no.    1   (in the list of all fragments)
 -----------------
 The local coordinate frame is identical to the molecular frame.

 Check Atomic Coordinates:

                  Master (on file)          After Computed Tranformation               As specified on Input
           ----------------------------     ----------------------------     ---------------------------------
     1)    -0.08310  -0.40401  -0.84612     -0.08310  -0.40401  -0.84612       1  -0.08310  -0.40401  -0.84612
     2)    -1.45320   0.98656  -0.23061     -1.45320   0.98656  -0.23061       2  -1.45320   0.98656  -0.23061
     3)    -1.10599   2.30566  -0.56161     -1.10599   2.30566  -0.56161       3  -1.10599   2.30566  -0.56161
     4)    -1.42234   3.32794   0.32049     -1.42234   3.32794   0.32049       5  -1.42234   3.32794   0.32049
     5)    -2.14235   3.07309   1.50099     -2.14235   3.07309   1.50099       7  -2.14235   3.07309   1.50099
     6)    -2.63092   1.79043   1.74695     -2.63092   1.79043   1.74695       8  -2.63092   1.79043   1.74695
     7)    -2.33281   0.75262   0.84983     -2.33281   0.75262   0.84983      10  -2.33281   0.75262   0.84983
     8)    -2.97828  -0.54526   0.78960     -2.97828  -0.54526   0.78960      11  -2.97828  -0.54526   0.78960
     9)    -3.69453  -1.21199   1.77838     -3.69453  -1.21199   1.77838      12  -3.69453  -1.21199   1.77838
    10)    -4.28293  -2.44385   1.51360     -4.28293  -2.44385   1.51360      13  -4.28293  -2.44385   1.51360
    11)    -4.14078  -3.02569   0.25271     -4.14078  -3.02569   0.25271      14  -4.14078  -3.02569   0.25271
    12)    -3.40741  -2.38862  -0.74780     -3.40741  -2.38862  -0.74780      15  -3.40741  -2.38862  -0.74780
    13)    -2.85769  -1.13282  -0.49396     -2.85769  -1.13282  -0.49396      16  -2.85769  -1.13282  -0.49396
    14)    -3.81190   1.47876  -2.41149     -3.81190   1.47876  -2.41149      21  -3.81190   1.47876  -2.41149
    15)    -3.09077   3.94280   3.48108     -3.09077   3.94280   3.48108      30  -3.09077   3.94280   3.48108
    16)    -0.54609   2.52048  -1.47021     -0.54609   2.52048  -1.47021       4  -0.54609   2.52048  -1.47021
    17)    -1.08955   4.34895   0.12586     -1.08955   4.34895   0.12586       6  -1.08955   4.34895   0.12586
    18)    -3.28639   1.58256   2.59057     -3.28639   1.58256   2.59057       9  -3.28639   1.58256   2.59057
    19)    -4.08832   1.92690  -3.37583     -4.08832   1.92690  -3.37583      23  -4.08832   1.92690  -3.37583
    20)    -3.29830   2.20932  -1.77295     -3.29830   2.20932  -1.77295      24  -3.29830   2.20932  -1.77295
    21)    -2.62374   3.19168   4.14348     -2.62374   3.19168   4.14348      31  -2.62374   3.19168   4.14348
    22)    -4.12702   3.62497   3.26709     -4.12702   3.62497   3.26709      32  -4.12702   3.62497   3.26709
    23)    -3.11802   4.90850   4.00187     -3.11802   4.90850   4.00187      33  -3.11802   4.90850   4.00187
    24)    -2.05676  -0.39405  -1.38041     -2.05676  -0.39405  -1.38041      17  -2.05676  -0.39405  -1.38041
    25)    -2.62002   0.18828  -2.84116     -2.62002   0.18828  -2.84116      18  -2.62002   0.18828  -2.84116
    26)    -1.50021   0.90525  -3.43706     -1.50021   0.90525  -3.43706      19  -1.50021   0.90525  -3.43706
    27)    -3.33556  -0.84744  -3.55885     -3.33556  -0.84744  -3.55885      20  -3.33556  -0.84744  -3.55885
    28)    -2.35049   4.13544   2.31055     -2.35049   4.13544   2.31055      29  -2.35049   4.13544   2.31055
    29)    -5.24368   0.85973  -1.59888     -5.24368   0.85973  -1.59888      22  -5.24368   0.85973  -1.59888
    30)    -3.22176  -3.02211  -1.88913     -3.22176  -3.02211  -1.88913      25  -3.22176  -3.02211  -1.88913
    31)    -4.66262  -4.21988   0.02765     -4.66262  -4.21988   0.02765      26  -4.66262  -4.21988   0.02765
    32)    -4.95466  -3.08368   2.45763     -4.95466  -3.08368   2.45763      27  -4.95466  -3.08368   2.45763
    33)    -3.81130  -0.70230   3.00307     -3.81130  -0.70230   3.00307      28  -3.81130  -0.70230   3.00307



                                            ****************************
                                            *  Fragment Type : ligand  *
                                            ****************************
  

 Fragment no.    2   (in the list of all fragments)
 -----------------
 The local coordinate frame is identical to the molecular frame.

 Check Atomic Coordinates:

                  Master (on file)          After Computed Tranformation               As specified on Input
           ----------------------------     ----------------------------     ---------------------------------
     1)     2.70185   1.07452  -2.67650      2.70185   1.07452  -2.67650      62   2.70185   1.07452  -2.67650
     2)    -0.31248  -1.86110   1.05933     -0.31248  -1.86110   1.05933      64  -0.31248  -1.86110   1.05933
     3)    -0.67811  -2.05844   2.79230     -0.67811  -2.05844   2.79230      65  -0.67811  -2.05844   2.79230
     4)    -0.45233  -0.44350   2.09034     -0.45233  -0.44350   2.09034      66  -0.45233  -0.44350   2.09034
     5)     0.90375  -2.43196  -1.33325      0.90375  -2.43196  -1.33325      68   0.90375  -2.43196  -1.33325
     6)     1.87029  -3.91691  -1.32908      1.87029  -3.91691  -1.32908      69   1.87029  -3.91691  -1.32908
     7)     1.75619  -2.93017   0.14539      1.75619  -2.93017   0.14539      70   1.75619  -2.93017   0.14539
     8)     4.80659   1.88809  -2.13378      4.80659   1.88809  -2.13378      72   4.80659   1.88809  -2.13378
     9)     4.40439   1.74845  -0.42636      4.40439   1.74845  -0.42636      73   4.40439   1.74845  -0.42636
    10)     6.01283   1.26055  -1.00139      6.01283   1.26055  -1.00139      74   6.01283   1.26055  -1.00139
    11)     6.31490  -3.89719  -3.24253      6.31490  -3.89719  -3.24253      76   6.31490  -3.89719  -3.24253
    12)     5.51747  -3.14745  -4.63449      5.51747  -3.14745  -4.63449      77   5.51747  -3.14745  -4.63449
    13)     6.92232  -2.35249  -3.88867      6.92232  -2.35249  -3.88867      78   6.92232  -2.35249  -3.88867
    14)     5.30697  -0.65879   0.77004      5.30697  -0.65879   0.77004      80   5.30697  -0.65879   0.77004
    15)     4.54835   0.84283   1.32372      4.54835   0.84283   1.32372      81   4.54835   0.84283   1.32372
    16)     5.65112  -0.03885   2.39863      5.65112  -0.03885   2.39863      82   5.65112  -0.03885   2.39863
    17)     3.61910  -4.33553   4.83667      3.61910  -4.33553   4.83667      84   3.61910  -4.33553   4.83667
    18)     4.18673  -2.92320   5.74578      4.18673  -2.92320   5.74578      85   4.18673  -2.92320   5.74578
    19)     2.47966  -3.42950   5.85001      2.47966  -3.42950   5.85001      86   2.47966  -3.42950   5.85001
    20)     1.09089   1.23884   2.76939      1.09089   1.23884   2.76939      88   1.09089   1.23884   2.76939
    21)     2.83390   1.35235   3.01544      2.83390   1.35235   3.01544      89   2.83390   1.35235   3.01544
    22)     1.78789   2.71973   3.44995      1.78789   2.71973   3.44995      90   1.78789   2.71973   3.44995
    23)     1.82214   6.49346  -0.98040      1.82214   6.49346  -0.98040      92   1.82214   6.49346  -0.98040
    24)     1.43063   6.54221   0.75766      1.43063   6.54221   0.75766      93   1.43063   6.54221   0.75766
    25)     3.12116   6.49274   0.22989      3.12116   6.49274   0.22989      94   3.12116   6.49274   0.22989
    26)     0.89926  -2.85297   4.05062      0.89926  -2.85297   4.05062      41   0.89926  -2.85297   4.05062
    27)     5.02119  -1.75027   3.70943      5.02119  -1.75027   3.70943      42   5.02119  -1.75027   3.70943
    28)     2.00896   4.35914  -2.08748      2.00896   4.35914  -2.08748      49   2.00896   4.35914  -2.08748
    29)     2.02163   4.49132   2.19265      2.02163   4.49132   2.19265      50   2.02163   4.49132   2.19265
    30)     6.23306  -0.37323  -2.74867      6.23306  -0.37323  -2.74867      57   6.23306  -0.37323  -2.74867
    31)     3.71791  -3.83033  -2.51879      3.71791  -3.83033  -2.51879      58   3.71791  -3.83033  -2.51879
    32)     0.96457   1.12155  -2.41511      0.96457   1.12155  -2.41511      60   0.96457   1.12155  -2.41511
    33)     1.76982   2.48116  -3.23605      1.76982   2.48116  -3.23605      61   1.76982   2.48116  -3.23605
    34)    -0.08647  -1.47963   2.07051     -0.08647  -1.47963   2.07051      63  -0.08647  -1.47963   2.07051
    35)     1.84197  -2.88662  -0.94993      1.84197  -2.88662  -0.94993      67   1.84197  -2.88662  -0.94993
    36)     4.93906   1.25724  -1.24033      4.93906   1.25724  -1.24033      71   4.93906   1.25724  -1.24033
    37)     6.01271  -2.93045  -3.67425      6.01271  -2.93045  -3.67425      75   6.01271  -2.93045  -3.67425
    38)     4.86288  -0.15830   1.64278      4.86288  -0.15830   1.64278      79   4.86288  -0.15830   1.64278
    39)     3.33826  -3.32301   5.17176      3.33826  -3.32301   5.17176      83   3.33826  -3.32301   5.17176
    40)     1.94803   1.92443   2.70970      1.94803   1.92443   2.70970      87   1.94803   1.92443   2.70970
    41)     2.11104   6.10999   0.00839      2.11104   6.10999   0.00839      91   2.11104   6.10999   0.00839
    42)     2.39839  -0.88107   1.70191      2.39839  -0.88107   1.70191      35   2.39839  -0.88107   1.70191
    43)     1.37164  -1.56268   2.40557      1.37164  -1.56268   2.40557      36   1.37164  -1.56268   2.40557
    44)     3.72024  -0.94371   2.20906      3.72024  -0.94371   2.20906      37   3.72024  -0.94371   2.20906
    45)     1.70480  -2.33373   3.52415      1.70480  -2.33373   3.52415      38   1.70480  -2.33373   3.52415
    46)     3.99410  -1.72492   3.33374      3.99410  -1.72492   3.33374      39   3.99410  -1.72492   3.33374
    47)     3.00863  -2.45168   3.99747      3.00863  -2.45168   3.99747      40   3.00863  -2.45168   3.99747
    48)     2.13026   1.77675   0.14013      2.13026   1.77675   0.14013      43   2.13026   1.77675   0.14013
    49)     2.04727   2.45419  -1.10675      2.04727   2.45419  -1.10675      44   2.04727   2.45419  -1.10675
    50)     2.07454   2.52757   1.33845      2.07454   2.52757   1.33845      45   2.07454   2.52757   1.33845
    51)     2.05509   3.85125  -1.11971      2.05509   3.85125  -1.11971      46   2.05509   3.85125  -1.11971
    52)     2.06561   3.92289   1.25924      2.06561   3.92289   1.25924      47   2.06561   3.92289   1.25924
    53)     2.08538   4.61100   0.04721      2.08538   4.61100   0.04721      48   2.08538   4.61100   0.04721
    54)     3.31973  -0.77842  -1.02566      3.31973  -0.77842  -1.02566      51   3.31973  -0.77842  -1.02566
    55)     4.48693  -0.15189  -1.52278      4.48693  -0.15189  -1.52278      52   4.48693  -0.15189  -1.52278
    56)     3.05476  -2.12542  -1.40526      3.05476  -2.12542  -1.40526      53   3.05476  -2.12542  -1.40526
    57)     5.33521  -0.87466  -2.37455      5.33521  -0.87466  -2.37455      54   5.33521  -0.87466  -2.37455
    58)     3.94117  -2.79501  -2.24570      3.94117  -2.79501  -2.24570      55   3.94117  -2.79501  -2.24570
    59)     5.09138  -2.18845  -2.75297      5.09138  -2.18845  -2.75297      56   5.09138  -2.18845  -2.75297
    60)     1.87707   1.75193  -2.42231      1.87707   1.75193  -2.42231      59   1.87707   1.75193  -2.42231
    61)     2.01694  -0.05408   0.08139      2.01694  -0.05408   0.08139      34   2.01694  -0.05408   0.08139

 Total nr. of (C)SFOs (summation over all irreps) :  1324

 Specify PRINT SFO in the input file to get a full list

 Nr. of SFOs for ir.rep.           A :  1324



 ================================
 (Slater-type)  F U N C T I O N S  ***  (Basis and Fit)  ***
 ================================
  

 Atom Type    1  (Pd)
 ==============

 Valence Basis Sets:  26
 -----------------------
   1 S  306.000000
   1 S   76.400000
   1 S   45.900000
   2 S   53.800000
   2 S   19.550000
   3 S   10.150000
   3 S    6.650000
   4 S    6.150000
   4 S    3.900000
   5 S    2.500000
   5 S    1.450000
   5 S    0.850000
   2 P   29.100000
   2 P   18.750000
   3 P   11.250000
   3 P    8.100000
   4 P    5.950000
   4 P    3.950000
   4 P    2.700000
   3 D   17.550000
   3 D   10.450000
   3 D    6.900000
   4 D    4.250000
   4 D    2.200000
   4 D    1.100000
   5 P    1.450000

 Charge Fitting Sets (for the computation of the Coulomb Potential):  58
 -----------------------------------------------------------------------
   1 S  612.000000
   1 S  446.101000
   1 S  325.174000
   1 S  237.027000
   1 S  172.774000
   1 S  125.939000
   1 S   91.800000
   1 S   53.670000
   2 S   58.190000
   2 S   38.430000
   3 S   37.300000
   3 S   26.280000
   4 S   24.500000
   4 S   18.000000
   5 S   16.470000
   5 S   12.460000
   6 S   11.300000
   6 S    8.740000
   7 S    7.890000
   7 S    6.210000
   8 S    5.590000
   8 S    4.470000
   8 S    3.570000
   9 S    3.210000
   9 S    2.600000
   9 S    2.100000
   9 S    1.700000
   2 P   64.650000
   3 P   49.410000
   4 P   37.530000
   5 P   28.620000
   6 P   21.980000
   6 P   14.500000
   7 P   11.220000
   7 P    7.620000
   8 P    5.940000
   8 P    4.130000
   9 P    3.240000
   9 P    2.300000
   3 D   56.350000
   4 D   37.260000
   5 D   25.120000
   6 D   17.230000
   6 D   10.190000
   7 D    7.110000
   7 D    4.360000
   8 D    3.090000
   8 D    1.950000
   4 F   47.900000
   5 F   28.270000
   6 F   17.190000
   6 F    9.040000
   7 F    5.640000
   7 F    3.100000
   5 G   20.900000
   6 G    9.980000
   7 G    4.980000
   7 G    2.200000

 Atom Type    2  (C)
 ==============

 Valence Basis Sets:   9
 -----------------------
   1 S    7.680000
   1 S    5.000000
   2 S    1.280000
   2 S    2.100000
   2 S    4.600000
   2 P    0.820000
   2 P    1.480000
   2 P    2.940000
   3 D    2.200000

 Charge Fitting Sets (for the computation of the Coulomb Potential):  22
 -----------------------------------------------------------------------
   1 S   15.360000
   2 S   17.530000
   2 S   12.070000
   2 S    8.310000
   2 S    5.730000
   3 S    5.780000
   3 S    4.220000
   3 S    3.080000
   3 S    2.250000
   3 S    1.640000
   2 P    9.880000
   2 P    5.800000
   3 P    5.050000
   3 P    3.230000
   3 P    2.060000
   3 D    7.200000
   3 D    4.400000
   3 D    2.690000
   3 D    1.640000
   4 F    5.400000
   4 F    3.550000
   5 G    4.500000

 Atom Type    3  (H)
 ==============

 Valence Basis Sets:   4
 -----------------------
   1 S    0.690000
   1 S    0.920000
   1 S    1.580000
   2 P    1.250000

 Charge Fitting Sets (for the computation of the Coulomb Potential):  11
 -----------------------------------------------------------------------
   1 S    3.160000
   1 S    2.090000
   1 S    1.380000
   2 S    1.500000
   2 P    4.000000
   2 P    2.650000
   2 P    1.750000
   3 D    4.000000
   3 D    2.500000
   4 F    3.000000
   5 G    4.000000

 Atom Type    4  (N)
 ==============

 Valence Basis Sets:   9
 -----------------------
   1 S    8.740000
   1 S    5.900000
   2 S    5.150000
   2 S    2.500000
   2 S    1.500000
   2 P    3.680000
   2 P    1.880000
   2 P    1.000000
   3 D    2.200000

 Charge Fitting Sets (for the computation of the Coulomb Potential):  22
 -----------------------------------------------------------------------
   1 S   17.480000
   2 S   20.150000
   2 S   13.990000
   2 S    9.710000
   2 S    6.740000
   3 S    6.860000
   3 S    5.040000
   3 S    3.700000
   3 S    2.720000
   3 S    2.000000
   2 P   11.320000
   2 P    6.730000
   3 P    5.920000
   3 P    3.820000
   3 P    2.460000
   3 D    8.100000
   3 D    5.080000
   3 D    3.190000
   3 D    2.000000
   4 F    5.800000
   4 F    3.600000
   5 G    4.500000

 Atom Type    5  (S)
 ==============

 Valence Basis Sets:  13
 -----------------------
   1 S   19.400000
   1 S   14.350000
   2 S    5.900000
   2 S    4.250000
   2 P    8.050000
   2 P    4.550000
   3 S    3.450000
   3 S    2.250000
   3 S    1.500000
   3 P    2.650000
   3 P    1.600000
   3 P    1.000000
   3 D    2.100000

 Charge Fitting Sets (for the computation of the Coulomb Potential):  30
 -----------------------------------------------------------------------
   1 S   38.800000
   1 S   23.350000
   2 S   26.020000
   2 S   17.570000
   3 S   17.420000
   3 S   12.500000
   3 S    8.980000
   4 S    8.520000
   4 S    6.360000
   4 S    4.750000
   5 S    4.420000
   5 S    3.390000
   5 S    2.600000
   5 S    2.000000
   2 P   27.450000
   3 P   20.250000
   4 P   14.920000
   4 P    8.780000
   5 P    6.520000
   5 P    4.040000
   5 P    2.500000
   3 D   20.900000
   4 D   14.560000
   4 D    8.130000
   5 D    5.740000
   5 D    3.390000
   5 D    2.000000
   4 F    5.000000
   4 F    3.000000
   5 G    3.620000

 Atom Type    6  (O)
 ==============

 Valence Basis Sets:   9
 -----------------------
   1 S    9.800000
   1 S    6.800000
   2 S    7.580000
   2 S    2.880000
   2 S    1.720000
   2 P    4.080000
   2 P    2.080000
   2 P    1.120000
   3 D    2.000000

 Charge Fitting Sets (for the computation of the Coulomb Potential):  22
 -----------------------------------------------------------------------
   1 S   19.600000
   2 S   22.600000
   2 S   15.680000
   2 S   10.890000
   2 S    7.560000
   3 S    7.690000
   3 S    5.650000
   3 S    4.150000
   3 S    3.050000
   3 S    2.240000
   2 P   12.860000
   2 P    7.680000
   3 P    6.780000
   3 P    4.390000
   3 P    2.840000
   3 D    8.800000
   3 D    5.580000
   3 D    3.530000
   3 D    2.240000
   4 F    6.200000
   4 F    3.700000
   5 G    4.500000

 Atom Type    7  (Cl)
 ==============

 Valence Basis Sets:  13
 -----------------------
   1 S   20.300000
   1 S   15.250000
   2 S    6.250000
   2 S    4.450000
   2 P    8.850000
   2 P    5.050000
   3 S    3.450000
   3 S    2.300000
   3 S    1.600000
   3 P    3.350000
   3 P    2.050000
   3 P    1.200000
   3 D    2.000000

 Charge Fitting Sets (for the computation of the Coulomb Potential):  30
 -----------------------------------------------------------------------
   1 S   40.600000
   1 S   24.830000
   2 S   28.080000
   2 S   19.200000
   3 S   19.250000
   3 S   13.970000
   3 S   10.130000
   4 S    9.710000
   4 S    7.320000
   4 S    5.510000
   5 S    5.170000
   5 S    4.000000
   5 S    3.100000
   5 S    2.400000
   2 P   29.150000
   3 P   21.740000
   4 P   16.160000
   4 P    9.600000
   5 P    7.180000
   5 P    4.480000
   5 P    2.800000
   3 D   21.950000
   4 D   15.750000
   4 D    9.040000
   5 D    6.550000
   5 D    3.960000
   5 D    2.400000
   4 F    5.000000
   4 F    3.000000
   5 G    3.500000

 Atom Type    8  (F)
 ==============

 Valence Basis Sets:   9
 -----------------------
   1 S   10.880000
   1 S    7.700000
   2 S    3.240000
   2 S    1.940000
   2 S    0.740000
   2 P    4.540000
   2 P    2.300000
   2 P    1.240000
   3 D    2.000000

 Charge Fitting Sets (for the computation of the Coulomb Potential):  23
 -----------------------------------------------------------------------
   1 S   21.760000
   2 S   24.390000
   2 S   16.560000
   2 S   11.240000
   2 S    7.630000
   3 S    7.600000
   3 S    5.480000
   3 S    3.950000
   3 S    2.850000
   3 S    2.050000
   3 S    1.480000
   2 P   14.400000
   2 P    7.530000
   3 P    5.900000
   3 P    3.420000
   3 P    1.980000
   3 D    9.700000
   3 D    6.160000
   3 D    3.910000
   3 D    2.480000
   4 F    6.500000
   4 F    3.750000
   5 G    4.500000

 Atom Type    9  (H)
 ==============

 Valence Basis Sets:   4
 -----------------------
   1 S    0.690000
   1 S    0.920000
   1 S    1.580000
   2 P    1.250000

 Charge Fitting Sets (for the computation of the Coulomb Potential):  11
 -----------------------------------------------------------------------
   1 S    3.160000
   1 S    2.090000
   1 S    1.380000
   2 S    1.500000
   2 P    4.000000
   2 P    2.650000
   2 P    1.750000
   3 D    4.000000
   3 D    2.500000
   4 F    3.000000
   5 G    4.000000

 Atom Type   10  (C)
 ==============

 Valence Basis Sets:   9
 -----------------------
   1 S    7.680000
   1 S    5.000000
   2 S    1.280000
   2 S    2.100000
   2 S    4.600000
   2 P    0.820000
   2 P    1.480000
   2 P    2.940000
   3 D    2.200000

 Charge Fitting Sets (for the computation of the Coulomb Potential):  22
 -----------------------------------------------------------------------
   1 S   15.360000
   2 S   17.530000
   2 S   12.070000
   2 S    8.310000
   2 S    5.730000
   3 S    5.780000
   3 S    4.220000
   3 S    3.080000
   3 S    2.250000
   3 S    1.640000
   2 P    9.880000
   2 P    5.800000
   3 P    5.050000
   3 P    3.230000
   3 P    2.060000
   3 D    7.200000
   3 D    4.400000
   3 D    2.690000
   3 D    1.640000
   4 F    5.400000
   4 F    3.550000
   5 G    4.500000

 Atom Type   11  (P)
 ==============

 Valence Basis Sets:  13
 -----------------------
   1 S   18.000000
   1 S   13.350000
   2 S    5.600000
   2 S    4.050000
   2 P    7.450000
   2 P    4.100000
   3 S    2.700000
   3 S    1.850000
   3 S    1.300000
   3 P    2.300000
   3 P    1.350000
   3 P    0.850000
   3 D    1.900000

 Charge Fitting Sets (for the computation of the Coulomb Potential):  30
 -----------------------------------------------------------------------
   1 S   36.000000
   1 S   21.450000
   2 S   23.670000
   2 S   15.860000
   3 S   15.600000
   3 S   11.130000
   3 S    7.940000
   4 S    7.490000
   4 S    5.560000
   4 S    4.130000
   5 S    3.810000
   5 S    2.910000
   5 S    2.230000
   5 S    1.700000
   2 P   25.450000
   3 P   18.490000
   4 P   13.440000
   4 P    7.810000
   5 P    5.730000
   5 P    3.510000
   5 P    2.150000
   3 D   19.350000
   4 D   13.230000
   4 D    7.250000
   5 D    5.040000
   5 D    2.930000
   5 D    1.700000
   4 F    5.000000
   4 F    3.000000
   5 G    3.750000


 BAS: List of all Elementary Cartesian Basis Functions
 =====================================================

 The numbering in the list below (to the right of the function characteristics) is referred
 to in print-outs of MO eigenvectors and Mulliken populations in the BAS representation
 (as contrasted to the SFO representation).

 Notes:
 1. The functions are characterized by a polynomial prefactor (powers of x,y,z and r) and
    an exponential decay factor alpha.
 2. Since the basis sets are specific for an atom TYPE, the individual functions occur on
    all atoms of that type.
 3. The word 'Core' in the left margin signals that it is a Core Function (CF) : not a
    degree of freedom in the valence set, but only used to ensure orthogonalization of
    the other valence basis functions on the frozen Core Orbitals.


 (power of) X  Y  Z  R     Alpha  on Atom
            ==========     =====     ==========

 Pd                                   1
                                  ---------------------------------------------------------------------------
            0  0  0  0   306.000      1
            0  0  0  0    76.400      2
            0  0  0  0    45.900      3
            0  0  0  1    53.800      4
            0  0  0  1    19.550      5
            0  0  0  2    10.150      6
            0  0  0  2     6.650      7
            0  0  0  3     6.150      8
            0  0  0  3     3.900      9
            0  0  0  4     2.500     10
            0  0  0  4     1.450     11
            0  0  0  4     0.850     12
            1  0  0  0    29.100     13
            0  1  0  0    29.100     14
            0  0  1  0    29.100     15
            1  0  0  0    18.750     16
            0  1  0  0    18.750     17
            0  0  1  0    18.750     18
            1  0  0  1    11.250     19
            0  1  0  1    11.250     20
            0  0  1  1    11.250     21
            1  0  0  1     8.100     22
            0  1  0  1     8.100     23
            0  0  1  1     8.100     24
            1  0  0  2     5.950     25
            0  1  0  2     5.950     26
            0  0  1  2     5.950     27
            1  0  0  2     3.950     28
            0  1  0  2     3.950     29
            0  0  1  2     3.950     30
            1  0  0  2     2.700     31
            0  1  0  2     2.700     32
            0  0  1  2     2.700     33
            2  0  0  0    17.550     34
            1  1  0  0    17.550     35
            1  0  1  0    17.550     36
            0  2  0  0    17.550     37
            0  1  1  0    17.550     38
            0  0  2  0    17.550     39
            2  0  0  0    10.450     40
            1  1  0  0    10.450     41
            1  0  1  0    10.450     42
            0  2  0  0    10.450     43
            0  1  1  0    10.450     44
            0  0  2  0    10.450     45
            2  0  0  0     6.900     46
            1  1  0  0     6.900     47
            1  0  1  0     6.900     48
            0  2  0  0     6.900     49
            0  1  1  0     6.900     50
            0  0  2  0     6.900     51
            2  0  0  1     4.250     52
            1  1  0  1     4.250     53
            1  0  1  1     4.250     54
            0  2  0  1     4.250     55
            0  1  1  1     4.250     56
            0  0  2  1     4.250     57
            2  0  0  1     2.200     58
            1  1  0  1     2.200     59
            1  0  1  1     2.200     60
            0  2  0  1     2.200     61
            0  1  1  1     2.200     62
            0  0  2  1     2.200     63
            2  0  0  1     1.100     64
            1  1  0  1     1.100     65
            1  0  1  1     1.100     66
            0  2  0  1     1.100     67
            0  1  1  1     1.100     68
            0  0  2  1     1.100     69
            1  0  0  3     1.450     70
            0  1  0  3     1.450     71
            0  0  1  3     1.450     72

 C                                    2    3    4    5    6    7    8    9   10   11   12   13   14   15
                                  ---------------------------------------------------------------------------
            0  0  0  0     7.680     73   93  113  133  153  173  193  213  233  253  273  293  313  333
            0  0  0  0     5.000     74   94  114  134  154  174  194  214  234  254  274  294  314  334
            0  0  0  1     1.280     75   95  115  135  155  175  195  215  235  255  275  295  315  335
            0  0  0  1     2.100     76   96  116  136  156  176  196  216  236  256  276  296  316  336
            0  0  0  1     4.600     77   97  117  137  157  177  197  217  237  257  277  297  317  337
            1  0  0  0     0.820     78   98  118  138  158  178  198  218  238  258  278  298  318  338
            0  1  0  0     0.820     79   99  119  139  159  179  199  219  239  259  279  299  319  339
            0  0  1  0     0.820     80  100  120  140  160  180  200  220  240  260  280  300  320  340
            1  0  0  0     1.480     81  101  121  141  161  181  201  221  241  261  281  301  321  341
            0  1  0  0     1.480     82  102  122  142  162  182  202  222  242  262  282  302  322  342
            0  0  1  0     1.480     83  103  123  143  163  183  203  223  243  263  283  303  323  343
            1  0  0  0     2.940     84  104  124  144  164  184  204  224  244  264  284  304  324  344
            0  1  0  0     2.940     85  105  125  145  165  185  205  225  245  265  285  305  325  345
            0  0  1  0     2.940     86  106  126  146  166  186  206  226  246  266  286  306  326  346
            2  0  0  0     2.200     87  107  127  147  167  187  207  227  247  267  287  307  327  347
            1  1  0  0     2.200     88  108  128  148  168  188  208  228  248  268  288  308  328  348
            1  0  1  0     2.200     89  109  129  149  169  189  209  229  249  269  289  309  329  349
            0  2  0  0     2.200     90  110  130  150  170  190  210  230  250  270  290  310  330  350
            0  1  1  0     2.200     91  111  131  151  171  191  211  231  251  271  291  311  331  351
            0  0  2  0     2.200     92  112  132  152  172  192  212  232  252  272  292  312  332  352

 H                                   16   17   18   19   20   21   22   23
                                  ---------------------------------------------------------------------------
            0  0  0  0     0.690    353  359  365  371  377  383  389  395
            0  0  0  0     0.920    354  360  366  372  378  384  390  396
            0  0  0  0     1.580    355  361  367  373  379  385  391  397
            1  0  0  0     1.250    356  362  368  374  380  386  392  398
            0  1  0  0     1.250    357  363  369  375  381  387  393  399
            0  0  1  0     1.250    358  364  370  376  382  388  394  400

 N                                   24
                                  ---------------------------------------------------------------------------
            0  0  0  0     8.740    401
            0  0  0  0     5.900    402
            0  0  0  1     5.150    403
            0  0  0  1     2.500    404
            0  0  0  1     1.500    405
            1  0  0  0     3.680    406
            0  1  0  0     3.680    407
            0  0  1  0     3.680    408
            1  0  0  0     1.880    409
            0  1  0  0     1.880    410
            0  0  1  0     1.880    411
            1  0  0  0     1.000    412
            0  1  0  0     1.000    413
            0  0  1  0     1.000    414
            2  0  0  0     2.200    415
            1  1  0  0     2.200    416
            1  0  1  0     2.200    417
            0  2  0  0     2.200    418
            0  1  1  0     2.200    419
            0  0  2  0     2.200    420

 S                                   25
                                  ---------------------------------------------------------------------------
            0  0  0  0    19.400    421
            0  0  0  0    14.350    422
            0  0  0  1     5.900    423
            0  0  0  1     4.250    424
            1  0  0  0     8.050    425
            0  1  0  0     8.050    426
            0  0  1  0     8.050    427
            1  0  0  0     4.550    428
            0  1  0  0     4.550    429
            0  0  1  0     4.550    430
            0  0  0  2     3.450    431
            0  0  0  2     2.250    432
            0  0  0  2     1.500    433
            1  0  0  1     2.650    434
            0  1  0  1     2.650    435
            0  0  1  1     2.650    436
            1  0  0  1     1.600    437
            0  1  0  1     1.600    438
            0  0  1  1     1.600    439
            1  0  0  1     1.000    440
            0  1  0  1     1.000    441
            0  0  1  1     1.000    442
            2  0  0  0     2.100    443
            1  1  0  0     2.100    444
            1  0  1  0     2.100    445
            0  2  0  0     2.100    446
            0  1  1  0     2.100    447
            0  0  2  0     2.100    448

 O                                   26   27   28
                                  ---------------------------------------------------------------------------
            0  0  0  0     9.800    449  469  489
            0  0  0  0     6.800    450  470  490
            0  0  0  1     7.580    451  471  491
            0  0  0  1     2.880    452  472  492
            0  0  0  1     1.720    453  473  493
            1  0  0  0     4.080    454  474  494
            0  1  0  0     4.080    455  475  495
            0  0  1  0     4.080    456  476  496
            1  0  0  0     2.080    457  477  497
            0  1  0  0     2.080    458  478  498
            0  0  1  0     2.080    459  479  499
            1  0  0  0     1.120    460  480  500
            0  1  0  0     1.120    461  481  501
            0  0  1  0     1.120    462  482  502
            2  0  0  0     2.000    463  483  503
            1  1  0  0     2.000    464  484  504
            1  0  1  0     2.000    465  485  505
            0  2  0  0     2.000    466  486  506
            0  1  1  0     2.000    467  487  507
            0  0  2  0     2.000    468  488  508

 Cl                                  29
                                  ---------------------------------------------------------------------------
            0  0  0  0    20.300    509
            0  0  0  0    15.250    510
            0  0  0  1     6.250    511
            0  0  0  1     4.450    512
            1  0  0  0     8.850    513
            0  1  0  0     8.850    514
            0  0  1  0     8.850    515
            1  0  0  0     5.050    516
            0  1  0  0     5.050    517
            0  0  1  0     5.050    518
            0  0  0  2     3.450    519
            0  0  0  2     2.300    520
            0  0  0  2     1.600    521
            1  0  0  1     3.350    522
            0  1  0  1     3.350    523
            0  0  1  1     3.350    524
            1  0  0  1     2.050    525
            0  1  0  1     2.050    526
            0  0  1  1     2.050    527
            1  0  0  1     1.200    528
            0  1  0  1     1.200    529
            0  0  1  1     1.200    530
            2  0  0  0     2.000    531
            1  1  0  0     2.000    532
            1  0  1  0     2.000    533
            0  2  0  0     2.000    534
            0  1  1  0     2.000    535
            0  0  2  0     2.000    536

 F                                   30   31   32   33
                                  ---------------------------------------------------------------------------
            0  0  0  0    10.880    537  557  577  597
            0  0  0  0     7.700    538  558  578  598
            0  0  0  1     3.240    539  559  579  599
            0  0  0  1     1.940    540  560  580  600
            0  0  0  1     0.740    541  561  581  601
            1  0  0  0     4.540    542  562  582  602
            0  1  0  0     4.540    543  563  583  603
            0  0  1  0     4.540    544  564  584  604
            1  0  0  0     2.300    545  565  585  605
            0  1  0  0     2.300    546  566  586  606
            0  0  1  0     2.300    547  567  587  607
            1  0  0  0     1.240    548  568  588  608
            0  1  0  0     1.240    549  569  589  609
            0  0  1  0     1.240    550  570  590  610
            2  0  0  0     2.000    551  571  591  611
            1  1  0  0     2.000    552  572  592  612
            1  0  1  0     2.000    553  573  593  613
            0  2  0  0     2.000    554  574  594  614
            0  1  1  0     2.000    555  575  595  615
            0  0  2  0     2.000    556  576  596  616

 H                                   34   35   36   37   38   39   40   41   42   43   44   45   46   47   48
                                     49   50   51   52   53   54   55   56   57   58   59   60   61   62   63
                                     64   65   66
                                  ---------------------------------------------------------------------------
            0  0  0  0     0.690    617  623  629  635  641  647  653  659  665  671  677  683  689  695  701
                                    707  713  719  725  731  737  743  749  755  761  767  773  779  785  791
                                    797  803  809
            0  0  0  0     0.920    618  624  630  636  642  648  654  660  666  672  678  684  690  696  702
                                    708  714  720  726  732  738  744  750  756  762  768  774  780  786  792
                                    798  804  810
            0  0  0  0     1.580    619  625  631  637  643  649  655  661  667  673  679  685  691  697  703
                                    709  715  721  727  733  739  745  751  757  763  769  775  781  787  793
                                    799  805  811
            1  0  0  0     1.250    620  626  632  638  644  650  656  662  668  674  680  686  692  698  704
                                    710  716  722  728  734  740  746  752  758  764  770  776  782  788  794
                                    800  806  812
            0  1  0  0     1.250    621  627  633  639  645  651  657  663  669  675  681  687  693  699  705
                                    711  717  723  729  735  741  747  753  759  765  771  777  783  789  795
                                    801  807  813
            0  0  1  0     1.250    622  628  634  640  646  652  658  664  670  676  682  688  694  700  706
                                    712  718  724  730  736  742  748  754  760  766  772  778  784  790  796
                                    802  808  814

 C                                   67   68   69   70   71   72   73   74   75   76   77   78   79   80   81
                                     82   83   84   85   86   87   88   89   90   91   92   93
                                  ---------------------------------------------------------------------------
            0  0  0  0     7.680    815  835  855  875  895  915  935  955  975  995 1015 1035 1055 1075 1095
                                   1115 1135 1155 1175 1195 1215 1235 1255 1275 1295 1315 1335
            0  0  0  0     5.000    816  836  856  876  896  916  936  956  976  996 1016 1036 1056 1076 1096
                                   1116 1136 1156 1176 1196 1216 1236 1256 1276 1296 1316 1336
            0  0  0  1     1.280    817  837  857  877  897  917  937  957  977  997 1017 1037 1057 1077 1097
                                   1117 1137 1157 1177 1197 1217 1237 1257 1277 1297 1317 1337
            0  0  0  1     2.100    818  838  858  878  898  918  938  958  978  998 1018 1038 1058 1078 1098
                                   1118 1138 1158 1178 1198 1218 1238 1258 1278 1298 1318 1338
            0  0  0  1     4.600    819  839  859  879  899  919  939  959  979  999 1019 1039 1059 1079 1099
                                   1119 1139 1159 1179 1199 1219 1239 1259 1279 1299 1319 1339
            1  0  0  0     0.820    820  840  860  880  900  920  940  960  980 1000 1020 1040 1060 1080 1100
                                   1120 1140 1160 1180 1200 1220 1240 1260 1280 1300 1320 1340
            0  1  0  0     0.820    821  841  861  881  901  921  941  961  981 1001 1021 1041 1061 1081 1101
                                   1121 1141 1161 1181 1201 1221 1241 1261 1281 1301 1321 1341
            0  0  1  0     0.820    822  842  862  882  902  922  942  962  982 1002 1022 1042 1062 1082 1102
                                   1122 1142 1162 1182 1202 1222 1242 1262 1282 1302 1322 1342
            1  0  0  0     1.480    823  843  863  883  903  923  943  963  983 1003 1023 1043 1063 1083 1103
                                   1123 1143 1163 1183 1203 1223 1243 1263 1283 1303 1323 1343
            0  1  0  0     1.480    824  844  864  884  904  924  944  964  984 1004 1024 1044 1064 1084 1104
                                   1124 1144 1164 1184 1204 1224 1244 1264 1284 1304 1324 1344
            0  0  1  0     1.480    825  845  865  885  905  925  945  965  985 1005 1025 1045 1065 1085 1105
                                   1125 1145 1165 1185 1205 1225 1245 1265 1285 1305 1325 1345
            1  0  0  0     2.940    826  846  866  886  906  926  946  966  986 1006 1026 1046 1066 1086 1106
                                   1126 1146 1166 1186 1206 1226 1246 1266 1286 1306 1326 1346
            0  1  0  0     2.940    827  847  867  887  907  927  947  967  987 1007 1027 1047 1067 1087 1107
                                   1127 1147 1167 1187 1207 1227 1247 1267 1287 1307 1327 1347
            0  0  1  0     2.940    828  848  868  888  908  928  948  968  988 1008 1028 1048 1068 1088 1108
                                   1128 1148 1168 1188 1208 1228 1248 1268 1288 1308 1328 1348
            2  0  0  0     2.200    829  849  869  889  909  929  949  969  989 1009 1029 1049 1069 1089 1109
                                   1129 1149 1169 1189 1209 1229 1249 1269 1289 1309 1329 1349
            1  1  0  0     2.200    830  850  870  890  910  930  950  970  990 1010 1030 1050 1070 1090 1110
                                   1130 1150 1170 1190 1210 1230 1250 1270 1290 1310 1330 1350
            1  0  1  0     2.200    831  851  871  891  911  931  951  971  991 1011 1031 1051 1071 1091 1111
                                   1131 1151 1171 1191 1211 1231 1251 1271 1291 1311 1331 1351
            0  2  0  0     2.200    832  852  872  892  912  932  952  972  992 1012 1032 1052 1072 1092 1112
                                   1132 1152 1172 1192 1212 1232 1252 1272 1292 1312 1332 1352
            0  1  1  0     2.200    833  853  873  893  913  933  953  973  993 1013 1033 1053 1073 1093 1113
                                   1133 1153 1173 1193 1213 1233 1253 1273 1293 1313 1333 1353
            0  0  2  0     2.200    834  854  874  894  914  934  954  974  994 1014 1034 1054 1074 1094 1114
                                   1134 1154 1174 1194 1214 1234 1254 1274 1294 1314 1334 1354

 P                                   94
                                  ---------------------------------------------------------------------------
            0  0  0  0    18.000   1355
            0  0  0  0    13.350   1356
            0  0  0  1     5.600   1357
            0  0  0  1     4.050   1358
            1  0  0  0     7.450   1359
            0  1  0  0     7.450   1360
            0  0  1  0     7.450   1361
            1  0  0  0     4.100   1362
            0  1  0  0     4.100   1363
            0  0  1  0     4.100   1364
            0  0  0  2     2.700   1365
            0  0  0  2     1.850   1366
            0  0  0  2     1.300   1367
            1  0  0  1     2.300   1368
            0  1  0  1     2.300   1369
            0  0  1  1     2.300   1370
            1  0  0  1     1.350   1371
            0  1  0  1     1.350   1372
            0  0  1  1     1.350   1373
            1  0  0  1     0.850   1374
            0  1  0  1     0.850   1375
            0  0  1  1     0.850   1376
            2  0  0  0     1.900   1377
            1  1  0  0     1.900   1378
            1  0  1  0     1.900   1379
            0  2  0  0     1.900   1380
            0  1  1  0     1.900   1381
            0  0  2  0     1.900   1382

 Total number of charge fitting functions (nprimf)      6725
 Total number of Cartesian basis functions (naos)       1382
 Total number of Cartesian core functions  (ncos)          0

1
 ***************************************************************************************************



                                              ***********************
                                              *  T E C H N I C A L  *
                                              ***********************
  



 =============================================================
 P A R A L L E L I Z A T I O N  and  V E C T O R I Z A T I O N
 =============================================================
  
 Nr of parallel processes:                               16
 Maximum vector length in NumInt loops:                 128



 =====================
 S C F   U P D A T E S
 =====================
  
 Max. nr. of cycles:                               300
 Convergence criterion:                              0.0000010000
   secondary criterion:                              0.0010000000

 Mix parameter (when DIIS does not apply):           0.2000000000
 Mixed ADIIS+SDIIS will be used                  
    Max number of expansion vectors:                10
    Pure ADIIS when Max([F,P]) is above              0.1000000000
    Pure SDIIS when Max([F,P]) is below              0.0010000000
 Automatic ElectronSmearing (in case of problematic SCF convergence) disabled



 =================
 P R E C I S I O N  ***  (General: NumInt, NeglectFunctionTails, ...)  ***
 =================
  

 NumInt:           Target precision:                 8.0000000000
 -------           Initial precision:                8.0000000000
                   Min. precision (optimization):    8.0000000000

 Neglect Functions:          Basis functions:        0.1000000000E-09
 ------------------          Fit functions:          0.1000000000E-09



 ===========================
 L I N E A R   S C A L I N G
 ===========================
  

[...]
     450       14.7805         0.000       
     449       14.6772         0.000       
     448       14.5929         0.000       
     447       14.5310         0.000       
     446       14.4782         0.000       
     445       14.4101         0.000       
     444       14.3407         0.000       
     443       14.2874         0.000       
     442       14.2088         0.000       
     441       14.1083         0.000       
     440       14.0345         0.000       
     439       13.9820         0.000       
     438       13.7954         0.000       
     437       13.7331         0.000       
     436       13.6735         0.000       
     435       13.5999         0.000       
     434       13.5215         0.000       
     433       13.4167         0.000       
     432       13.3562         0.000       
     431       13.2494         0.000       
     430       13.1706         0.000       
     429       13.1048         0.000       
     428       13.0030         0.000       
     427       12.9878         0.000       
     426       12.9322         0.000       
     425       12.8406         0.000       
     424       12.8207         0.000       
     423       12.7246         0.000       
     422       12.6790         0.000       
     421       12.6679         0.000       
     420       12.5920         0.000       
     419       12.5491         0.000       
     418       12.4050         0.000       
     417       12.3441         0.000       
     416       12.2872         0.000       
     415       12.2186         0.000       
     414       12.1142         0.000       
     413       12.1116         0.000       
     412       12.0237         0.000       
     411       12.0135         0.000       
     410       11.9202         0.000       
     409       11.9038         0.000       
     408       11.8370         0.000       
     407       11.7049         0.000       
     406       11.6754         0.000       
     405       11.6637         0.000       
     404       11.5727         0.000       
     403       11.5396         0.000       
     402       11.4852         0.000       
     401       11.4105         0.000       
     400       11.3569         0.000       
     399       11.2809         0.000       
     398       11.2469         0.000       
     397       11.2086         0.000       
     396       11.1253         0.000       
     395       11.0752         0.000       
     394       10.9668         0.000       
     393       10.8959         0.000       
     392       10.8574         0.000       
     391       10.8003         0.000       
     390       10.7590         0.000       
     389       10.6480         0.000       
     388       10.6419         0.000       
     387       10.5146         0.000       
     386       10.4815         0.000       
     385       10.4484         0.000       
     384       10.3372         0.000       
     383       10.3022         0.000       
     382       10.2108         0.000       
     381       10.1898         0.000       
     380       10.1004         0.000       
     379       10.0758         0.000       
     378       10.0039         0.000       
     377        9.8978         0.000       
     376        9.8414         0.000       
     375        9.8079         0.000       
     374        9.7960         0.000       
     373        9.7459         0.000       
     372        9.6217         0.000       
     371        9.5805         0.000       
     370        9.5444         0.000       
     369        9.4720         0.000       
     368        9.4054         0.000       
     367        9.3551         0.000       
     366        9.2807         0.000       
     365        9.1781         0.000       
     364        9.1164         0.000       
     363        9.0151         0.000       
     362        8.9987         0.000       
     361        8.9687         0.000       
     360        8.8618         0.000       
     359        8.8093         0.000       
     358        8.7718         0.000       
     357        8.7401         0.000       
     356        8.6799         0.000       
     355        8.5859         0.000       
     354        8.4317         0.000       
     353        8.3981         0.000       
     352        8.3541         0.000       
     351        8.1951         0.000       
     350        8.1380         0.000       
     349        8.0453         0.000       
     348        8.0166         0.000       
     347        7.9688         0.000       
     346        7.9409         0.000       
     345        7.8757         0.000       
     344        7.7865         0.000       
     343        7.7487         0.000       
     342        7.6880         0.000       
     341        7.5713         0.000       
     340        7.5598         0.000       
     339        7.5070         0.000       
     338        7.4059         0.000       
     337        7.3425         0.000       
     336        7.2231         0.000       
     335        7.1603         0.000       
     334        7.1200         0.000       
     333        7.0906         0.000       
     332        6.9734         0.000       
     331        6.9385         0.000       
     330        6.9255         0.000       
     329        6.8694         0.000       
     328        6.7504         0.000       
     327        6.7421         0.000       
     326        6.6726         0.000       
     325        6.6243         0.000       
     324        6.5246         0.000       
     323        6.3495         0.000       
     322        6.3276         0.000       
     321        6.2675         0.000       
     320        6.1645         0.000       
     319        6.1472         0.000       
     318        6.0732         0.000       
     317        5.9261         0.000       
     316        5.8992         0.000       
     315        5.8367         0.000       
     314        5.7525         0.000       
     313        5.6969         0.000       
     312        5.6733         0.000       
     311        5.6083         0.000       
     310        5.5689         0.000       
     309        5.4592         0.000       
     308        5.3560         0.000       
     307        5.2984         0.000       
     306        5.2543         0.000       
     305        5.1691         0.000       
     304        4.9628         0.000       
     303        4.8980         0.000       
     302        4.8441         0.000       
     301        4.8313         0.000       
     300        4.7853         0.000       
     299        4.7392         0.000       
     298        4.6901         0.000       
     297        4.6199         0.000       
     296        4.5372         0.000       
     295        4.4427         0.000       
     294        4.3419         0.000       
     293        4.3060         0.000       
     292        4.2216         0.000       
     291        4.1927         0.000       
     290        4.0888         0.000       
     289        3.9007         0.000       
     288        3.8609         0.000       
     287        3.8014         0.000       
     286        3.7774         0.000       
     285        3.7110         0.000       
     284        3.6363         0.000       
     283        3.6075         0.000       
     282        3.5763         0.000       
     281        3.5158         0.000       
     280        3.4416         0.000       
     279        3.3199         0.000       
     278        3.2474         0.000       
     277        3.1647         0.000       
     276        3.0940         0.000       
     275        3.0869         0.000       
     274        2.9843         0.000       
     273        2.9102         0.000       
     272        2.8424         0.000       
     271        2.7635         0.000       
     270        2.7020         0.000       
     269        2.6564         0.000       
     268        2.6034         0.000       
     267        2.5385         0.000       
     266        2.4486         0.000       
     265        2.4324         0.000       
     264        2.3634         0.000       
     263        2.3141         0.000       
     262        2.2096         0.000       
     261        2.1877         0.000       
     260        2.1657         0.000       
     259        2.0809         0.000       
     258        1.9758         0.000       
     257        1.9499         0.000       
     256        1.8890         0.000       
     255        1.7972         0.000       
     254        1.7483         0.000       
     253        1.6895         0.000       
     252        1.5910         0.000       
     251        1.5270         0.000       
     250        1.4403         0.000       
     249        1.3409         0.000       
     248        1.2499         0.000       
     247        1.2179         0.000       
     246        1.0947         0.000       
     245        1.0128         0.000       
     244        0.9506         0.000       
     243        0.8815         0.000       
     242        0.6654         0.000       
     241        0.6534         0.000       
     240        0.6160         0.000       
     239        0.4553         0.000       
     238        0.4136         0.000       
     237        0.3066         0.000       
     236        0.2825         0.000       
     235        0.0674         0.000       
     234       -0.0411         0.000       
     233       -0.2751         0.000       
     232       -0.3195         0.000       
     231       -0.4459         0.000       
     230       -0.5409         0.000       
     229       -0.6074         0.000       
     228       -0.8273         0.000       
     227       -1.1424         0.000       
     226       -1.2416         0.000       
     225       -1.3605         0.000 < LUMO
     224       -5.2596         2.000 < HOMO
     223       -6.0798         2.000       
     222       -6.5543         2.000       
     221       -6.8317         2.000       
     220       -6.8769         2.000       
     219       -6.9657         2.000       
     218       -7.0589         2.000       
     217       -7.0850         2.000       
     216       -7.1087         2.000       
     215       -7.1871         2.000       
     214       -7.3239         2.000       
     213       -7.4541         2.000       
     212       -7.4786         2.000       
     211       -7.8524         2.000       
     210       -8.1501         2.000       
     209       -8.5301         2.000       
     208       -8.7287         2.000       
     207       -8.8378         2.000       
     206       -8.9706         2.000       
     205       -9.2612         2.000       
     204       -9.2795         2.000       
     203       -9.4099         2.000       
     202       -9.5139         2.000       
     201       -9.5526         2.000       
     200       -9.6683         2.000       
     199       -9.7249         2.000       
     198       -9.7640         2.000       
     197       -9.8023         2.000       
     196       -9.8688         2.000       
     195       -9.8892         2.000       
     194       -9.9142         2.000       
     193      -10.0274         2.000       
     192      -10.0754         2.000       
     191      -10.2744         2.000       
     190      -10.3831         2.000       
     189      -10.4293         2.000       
     188      -10.4893         2.000       
     187      -10.5783         2.000       
     186      -10.7155         2.000       
     185      -10.8868         2.000       
     184      -10.9270         2.000       
     183      -11.0429         2.000       
     182      -11.0956         2.000       
     181      -11.1841         2.000       
     180      -11.2358         2.000       
     179      -11.2880         2.000       
     178      -11.3440         2.000       
     177      -11.3915         2.000       
     176      -11.4112         2.000       
     175      -11.4788         2.000       
     174      -11.4868         2.000       
     173      -11.5548         2.000       
     172      -11.5736         2.000       
     171      -11.6351         2.000       
     170      -11.7935         2.000       
     169      -11.8333         2.000       
     168      -11.8592         2.000       
     167      -11.9043         2.000       
     166      -11.9407         2.000       
     165      -12.0016         2.000       
     164      -12.0531         2.000       
     163      -12.1993         2.000       
     162      -12.2605         2.000       
     161      -12.2916         2.000       
     160      -12.3196         2.000       
     159      -12.3726         2.000       
     158      -12.4107         2.000       
     157      -12.4479         2.000       
     156      -12.4796         2.000       
     155      -12.6232         2.000       
     154      -12.7724         2.000       
     153      -12.8354         2.000       
     152      -13.0433         2.000       
     151      -13.1265         2.000       
     150      -13.1512         2.000       
     149      -13.3819         2.000       
     148      -13.4389         2.000       
     147      -13.4749         2.000       
     146      -13.6364         2.000       
     145      -13.6829         2.000       
     144      -13.7762         2.000       
     143      -13.9182         2.000       
     142      -14.0253         2.000       
     141      -14.0393         2.000       
     140      -14.0853         2.000       
     139      -14.2156         2.000       
     138      -14.2707         2.000       
     137      -14.5207         2.000       
     136      -14.7200         2.000       
     135      -15.0278         2.000       
     134      -15.2278         2.000       
     133      -15.3761         2.000       
     132      -15.6526         2.000       
     131      -16.0126         2.000       
     130      -16.2092         2.000       
     129      -16.2558         2.000       
     128      -16.2780         2.000       
     127      -16.2915         2.000       
     126      -16.4141         2.000       
     125      -16.4509         2.000       
     124      -16.4836         2.000       
     123      -17.0149         2.000       
     122      -17.3247         2.000       
     121      -17.5595         2.000       
     120      -17.6744         2.000       
     119      -18.6681         2.000       
     118      -18.8727         2.000       
     117      -19.1247         2.000       
     116      -19.1749         2.000       
     115      -19.3014         2.000       
     114      -19.4097         2.000       
     113      -19.4748         2.000       
     112      -19.8326         2.000       
     111      -19.8733         2.000       
     110      -19.8979         2.000       
     109      -19.9930         2.000       
     108      -20.3565         2.000       
     107      -20.4151         2.000       
     106      -21.0688         2.000       
     105      -21.4231         2.000       
     104      -21.7168         2.000       
     103      -22.1162         2.000       
     102      -22.1896         2.000       
     101      -22.2894         2.000       
     100      -22.3309         2.000       
      99      -22.4184         2.000       
      98      -22.5793         2.000       
      97      -22.6653         2.000       
      96      -24.3529         2.000       
      95      -24.4865         2.000       
      94      -24.5309         2.000       
      93      -24.5952         2.000       
      92      -24.7340         2.000       
      91      -24.7857         2.000       
      90      -26.9015         2.000       
      89      -28.3405         2.000       
      88      -30.3351         2.000       
      87      -31.3385         2.000       
      86      -34.8170         2.000       
      85      -34.9948         2.000       
      84      -35.2339         2.000       
      83      -35.4765         2.000       
      82      -56.9754         2.000       
      81      -57.4470         2.000       
      80      -57.7369         2.000       
      79      -92.7355         2.000       
      78     -129.6858         2.000       
      77     -129.7732         2.000       
      76     -129.7781         2.000       
      75     -166.0574         2.000       
      74     -166.0711         2.000       
      73     -166.1112         2.000       
      72     -181.5526         2.000       
      71     -197.5480         2.000       
      70     -197.5601         2.000       
      69     -197.8425         2.000       
      68     -223.6268         2.000       
      67     -261.1951         2.000       
      66     -278.1504         2.000       
      65     -278.2913         2.000       
      64     -278.3072         2.000       
      63     -278.3282         2.000       
      62     -278.3661         2.000       
      61     -278.4700         2.000       
      60     -278.4821         2.000       
      59     -278.4945         2.000       
      58     -278.4987         2.000       
      57     -278.5058         2.000       
      56     -278.5198         2.000       
      55     -278.5295         2.000       
      54     -278.5582         2.000       
      53     -278.5700         2.000       
      52     -278.5711         2.000       
      51     -278.6876         2.000       
      50     -278.7374         2.000       
      49     -278.7648         2.000       
      48     -278.9272         2.000       
      47     -278.9914         2.000       
      46     -279.0804         2.000       
      45     -279.1007         2.000       
      44     -279.1226         2.000       
      43     -279.1402         2.000       
      42     -279.1715         2.000       
      41     -279.1828         2.000       
      40     -279.1878         2.000       
      39     -279.1905         2.000       
      38     -279.2149         2.000       
      37     -279.2195         2.000       
      36     -279.2225         2.000       
      35     -279.4662         2.000       
      34     -279.9366         2.000       
      33     -280.1427         2.000       
      32     -280.2341         2.000       
      31     -280.3448         2.000       
      30     -280.8514         2.000       
      29     -281.3611         2.000       
      28     -281.3801         2.000       
      27     -281.4165         2.000       
      26     -281.4335         2.000       
      25     -336.9650         2.000       
      24     -336.9798         2.000       
      23     -337.0422         2.000       
      22     -337.1247         2.000       
      21     -337.1335         2.000       
      20     -393.3876         2.000       
      19     -523.0333         2.000       
      18     -523.0898         2.000       
      17     -524.1192         2.000       
      16     -530.8165         2.000       
      15     -530.9899         2.000       
      14     -531.0670         2.000       
      13     -652.7921         2.000       
      12     -675.2971         2.000       
      11     -675.5569         2.000       
      10     -675.5986         2.000       
       9     -675.6109         2.000       
       8    -2107.6590         2.000       
       7    -2435.4041         2.000       
       6    -2777.4189         2.000       
       5    -3188.9334         2.000       
       4    -3189.0141         2.000       
       3    -3189.0349         2.000       
       2    -3559.9385         2.000       
       1   -24223.1829         2.000       

AMS application finished. Exiting.
NORMAL TERMINATION
     Total cpu time:    3862.79
  Total system time:      25.94
 Total elapsed time:    3904.67
NORMAL TERMINATION
