

 Parallel Execution: Process Information
 ==============================================================================
 Rank   Node Name                              NodeID   MyNodeRank  NodeMaster
    0   eu-g5-012-4                               0          0          0
    1   eu-g5-012-4                               1          0          1
    2   eu-g5-012-4                               0          1         -1
    3   eu-g5-012-4                               1          1         -1
    4   eu-g5-012-4                               0          2         -1
    5   eu-g5-012-4                               1          2         -1
    6   eu-g5-012-4                               0          3         -1
    7   eu-g5-012-4                               1          3         -1
    8   eu-g5-012-4                               0          4         -1
    9   eu-g5-012-4                               1          4         -1
   10   eu-g5-012-4                               0          5         -1
   11   eu-g5-012-4                               1          5         -1
   12   eu-g5-012-4                               0          6         -1
   13   eu-g5-012-4                               1          6         -1
   14   eu-g5-012-4                               0          7         -1
   15   eu-g5-012-4                               1          7         -1
 ==============================================================================


May use up to 30759MB of RAM as shared memory on node 0
May use up to 30759MB of RAM as shared memory on node 1

 *******************************************************************************
 *                                                                             *
 *  --------------------------------                                           *
 *   Amsterdam Modeling Suite (AMS)              2023.101                      *
 *  --------------------------------                                           *
 *                                               r111868 2023-03-31            *
 *                                                                             *
 *                                                                             *
 *                              =================                              *
 *                              |               |                              *
 *                              |     A M S     |                              *
 *                              |               |                              *
 *                              =================                              *
 *                                                                             *
 *                                                                             *
 *   Online information and documentation:  https://www.scm.com/support/       *
 *   E-mail:  support@scm.com   info@scm.com                                   *
 *                                                                             *
 *   Scientific publications using AMS results must be properly referenced     *
 *   See the User Manuals (or the web site) for recommended citations          *
 *   The terms and conditions of the End User License Agreement apply to       *
 *   the use of AMS, https://www.scm.com/license-terms/                        *
 *                                                                             *
 ***********************  x86_64_linux_intel / openmpi  ************************
 
 Licensed to: D-CHAB / ETH site license / Zurich / Switzerland 2023-06-23 15:55:12
 SCM User ID: u7035
  
 AMS 2023.101  RunTime: May25-2024 09:19:12  ShM Nodes: 2  Procs: 16

 AMS jobname: ts_ptbu3
 AMS jobid  : 621558466

 Start   directory: /cluster/scratch/sroediger/michael/eda/
 Results directory: /cluster/scratch/sroediger/michael/eda/ts_ptbu3.results/
 Scratch directory: /scratch/amstmp_ts_ptbu3_kid0.621558466/


 Communication costs MPI_COMM_WORLD:      8.445 usec per message,   0.0179 usec per 8-byte item
 Communication costs for intra-node:      4.485 usec per message,   0.0203 usec per 8-byte item

 RNG seed: 1334893100 -1409777881 1894169553 -1726060023 -1062054741 -189304351 -1556614755 1235375485



                     *************************************************************************
                     *  ADF 2023.101  RunTime: May25-2024 09:19:13  ShM Nodes: 2  Procs: 16  *
                     *************************************************************************
  

       ****************************
       * SINGLE POINT CALCULATION *
       ****************************
 
--------
Geometry
--------
Formula: C26H35ClF4NO3PPdS
Atoms
  Index Symbol   x (angstrom)   y (angstrom)   z (angstrom)
      1     Pd    -0.71402500     0.40626100    -0.77723400       region=pdsubstrate adf.f=pdsubstrate
      2      P    -2.89132100     0.26356500    -0.03833700       region=ligand adf.f=ligand
      3      C    -3.57559300     2.05042700    -0.01773600       region=ligand adf.f=ligand
      4      C    -3.05963200     2.75197300    -1.28435400       region=ligand adf.f=ligand
      5      H    -3.45939400     2.33608400    -2.21443700       region=ligand adf.f=ligand
      6      H    -3.34799600     3.81554700    -1.24430600       region=ligand adf.f=ligand
      7      H    -1.95792200     2.71174800    -1.34154800       region=ligand adf.f=ligand
      8      C    -5.09752100     2.17428400     0.06233100       region=ligand adf.f=ligand
      9      H    -5.60248100     1.75173600    -0.81594600       region=ligand adf.f=ligand
     10      H    -5.36886900     3.24237500     0.10752300       region=ligand adf.f=ligand
     11      H    -5.51136800     1.69303600     0.95820100       region=ligand adf.f=ligand
     12      C    -2.95111500     2.80896400     1.15801200       region=ligand adf.f=ligand
     13      H    -3.18403400     3.88015700     1.04327200       region=ligand adf.f=ligand
     14      H    -3.34775600     2.49311400     2.13102000       region=ligand adf.f=ligand
     15      H    -1.85509400     2.70616500     1.16988300       region=ligand adf.f=ligand
     16      C    -3.96196200    -0.80149700    -1.21082800       region=ligand adf.f=ligand
     17      C    -5.31301300    -1.24064000    -0.64496800       region=ligand adf.f=ligand
     18      H    -5.93777200    -0.39309700    -0.33330700       region=ligand adf.f=ligand
     19      H    -5.86624200    -1.78796200    -1.42639400       region=ligand adf.f=ligand
     20      H    -5.20757900    -1.92186400     0.20968100       region=ligand adf.f=ligand
     21      C    -4.19013900    -0.03541700    -2.51851000       region=ligand adf.f=ligand
     22      H    -3.24120900     0.31957800    -2.94850000       region=ligand adf.f=ligand
     23      H    -4.64237100    -0.72670700    -3.24815500       region=ligand adf.f=ligand
     24      H    -4.87418100     0.81570400    -2.41226400       region=ligand adf.f=ligand
     25      C    -3.13368700    -2.03312100    -1.60316300       region=ligand adf.f=ligand
     26      H    -3.72581000    -2.64753200    -2.30164200       region=ligand adf.f=ligand
     27      H    -2.21215200    -1.72541900    -2.11755000       region=ligand adf.f=ligand
     28      H    -2.84972200    -2.66740400    -0.75732100       region=ligand adf.f=ligand
     29      C    -2.97220100    -0.46343800     1.72973200       region=ligand adf.f=ligand
     30      C    -4.29244400    -0.22525700     2.46457700       region=ligand adf.f=ligand
     31      H    -4.47438600     0.83998300     2.66072900       region=ligand adf.f=ligand
     32      H    -4.24859200    -0.72884600     3.44474400       region=ligand adf.f=ligand
     33      H    -5.16024500    -0.62812900     1.92742100       region=ligand adf.f=ligand
     34      C    -1.82050000     0.12819300     2.55605300       region=ligand adf.f=ligand
     35      H    -0.85642200     0.00275800     2.04458300       region=ligand adf.f=ligand
     36      H    -1.76610600    -0.41510800     3.51377700       region=ligand adf.f=ligand
     37      H    -1.95083900     1.18933700     2.78942400       region=ligand adf.f=ligand
     38      C    -2.69861400    -1.96969700     1.64826000       region=ligand adf.f=ligand
     39      H    -1.76613400    -2.18601300     1.10676300       region=ligand adf.f=ligand
     40      H    -2.58063300    -2.35491600     2.67399400       region=ligand adf.f=ligand
     41      H    -3.51854400    -2.53241400     1.18417000       region=ligand adf.f=ligand
     42      C     0.56707700    -1.06617900    -0.18286100       region=pdsubstrate adf.f=pdsubstrate
     43      C     0.32386300    -2.31381100    -0.78329300       region=pdsubstrate adf.f=pdsubstrate
     44      H    -0.08544900    -2.36842700    -1.79196600       region=pdsubstrate adf.f=pdsubstrate
     45      C     0.56744900    -3.47076500    -0.05778700       region=pdsubstrate adf.f=pdsubstrate
     46      H     0.32924500    -4.45075100    -0.47649100       region=pdsubstrate adf.f=pdsubstrate
     47      C     1.10607800    -3.41829100     1.24177600       region=pdsubstrate adf.f=pdsubstrate
     48      C     1.49122900    -2.19004900     1.77725400       region=pdsubstrate adf.f=pdsubstrate
     49      H     2.00961600    -2.12297800     2.73210000       region=pdsubstrate adf.f=pdsubstrate
     50      C     1.27261900    -1.01526500     1.03986400       region=pdsubstrate adf.f=pdsubstrate
     51      C     1.87874700     0.27979000     1.28828100       region=pdsubstrate adf.f=pdsubstrate
     52      C     2.41780400     0.77982600     2.47027700       region=pdsubstrate adf.f=pdsubstrate
     53      C     3.01013500     2.03805200     2.49774100       region=pdsubstrate adf.f=pdsubstrate
     54      C     3.05379100     2.81151800     1.33626900       region=pdsubstrate adf.f=pdsubstrate
     55      C     2.50149500     2.34292700     0.14367100       region=pdsubstrate adf.f=pdsubstrate
     56      C     1.93824400     1.06613700     0.10775500       region=pdsubstrate adf.f=pdsubstrate
     57      N     1.30468900     0.47791800    -0.99763100       region=pdsubstrate adf.f=pdsubstrate
     58      S     2.10971900     0.13436600    -2.42931000       region=pdsubstrate adf.f=pdsubstrate
     59      O     1.12968900    -0.53095400    -3.27122100       region=pdsubstrate adf.f=pdsubstrate
     60      O     2.84899300     1.29339900    -2.88804900       region=pdsubstrate adf.f=pdsubstrate
     61      C     3.32350400    -1.08551700    -1.86388700       region=pdsubstrate adf.f=pdsubstrate
     62     Cl     4.37723400    -1.57256500    -3.18435000       region=pdsubstrate adf.f=pdsubstrate
     63      H     2.77394800    -1.95210900    -1.47509700       region=pdsubstrate adf.f=pdsubstrate
     64      H     3.91310700    -0.60566500    -1.07080200       region=pdsubstrate adf.f=pdsubstrate
     65      F     2.48321800     3.15076400    -0.89676200       region=pdsubstrate adf.f=pdsubstrate
     66      F     3.57907300     4.02332900     1.38504100       region=pdsubstrate adf.f=pdsubstrate
     67      F     3.51510600     2.51736400     3.62209100       region=pdsubstrate adf.f=pdsubstrate
     68      F     2.36554200     0.07610100     3.59823000       region=pdsubstrate adf.f=pdsubstrate
     69      O     1.25546400    -4.60419400     1.87000600       region=pdsubstrate adf.f=pdsubstrate
     70      C     1.81801600    -4.61277400     3.15074700       region=pdsubstrate adf.f=pdsubstrate
     71      H     1.22751100    -4.00790700     3.86224400       region=pdsubstrate adf.f=pdsubstrate
     72      H     2.85673000    -4.23657000     3.14758400       region=pdsubstrate adf.f=pdsubstrate
     73      H     1.82141400    -5.65691800     3.48821200       region=pdsubstrate adf.f=pdsubstrate
 
Total System Charge             0.00000
Bonding info available!
 
 
----------------
ADF Engine Input
----------------
 
 Basis
 Type TZP
 Core None
 End
 Fragments
 ligand ./ts_ptbu3.ligand.results/adf.rkf
 pdsubstrate ./ts_ptbu3.pdsubstrate.results/adf.rkf
 End
 XC
 Hybrid PBE0
 DISPERSION Grimme3 BJDAMP
 End
 NumericalQuality VeryGood
 

 Title: *** (NO TITLE) ***

 *** adf ***



 ===========================
 A T T A C H E D   F I L E S
 ===========================
  



 ===============================
 M O D E L   P A R A M E T E R S
 ===============================
  
 DENSITY FUNCTIONAL POTENTIAL (scf)
    Hybrid:                            PBE0                                    == Not Default ==

 SPIN  (restricted / unrestr.)
    Molecule:                          Restricted                               
    Fragments:                         Restricted                               

 OTHER ASPECTS
    Relativistic Corrections:          scalar (ZORA,MAPA)                       

    Nuclear Charge Density Model:      Point Charge Nuclei                      
    Core Treatment:                    Frozen Orbital(s)                        

    Hyperfine or Zeeman Interaction:   ---                                      

 Settings for Grimme D3 dispersion correction

      damping                        BJ
      s6                          1.000
      s8                          1.218
      a1                          0.414
      a2                          4.859

 Other (technical) parameters

      alpha                      14.000
      version                         4
 


 Fragment File(s)
 ----------------
 pdsubstrate:
         file : ./ts_ptbu3.pdsubstrate.results/adf.rkf
         jobid: 1505088006
         title: *** adf ***
 ligand:
         file : ./ts_ptbu3.ligand.results/adf.rkf
         jobid: 929768257
         title: *** adf ***



 ===============
 G E O M E T R Y  ***  3D  Molecule  ***
 ===============
  

 ATOMS
 =====                            X Y Z                    CHARGE
                                (Angstrom)             Nucl     +Core       At.Mass
                       --------------------------    ----------------       -------
    1  Pd             -0.7140    0.4063   -0.7772     46.00     46.00      105.9035
    2  P              -2.8913    0.2636   -0.0383     15.00     15.00       30.9738
    3  C              -3.5756    2.0504   -0.0177      6.00      6.00       12.0000
    4  C              -3.0596    2.7520   -1.2844      6.00      6.00       12.0000
    5  H              -3.4594    2.3361   -2.2144      1.00      1.00        1.0078
    6  H              -3.3480    3.8155   -1.2443      1.00      1.00        1.0078
    7  H              -1.9579    2.7117   -1.3415      1.00      1.00        1.0078
    8  C              -5.0975    2.1743    0.0623      6.00      6.00       12.0000
    9  H              -5.6025    1.7517   -0.8159      1.00      1.00        1.0078
   10  H              -5.3689    3.2424    0.1075      1.00      1.00        1.0078
   11  H              -5.5114    1.6930    0.9582      1.00      1.00        1.0078
   12  C              -2.9511    2.8090    1.1580      6.00      6.00       12.0000
   13  H              -3.1840    3.8802    1.0433      1.00      1.00        1.0078
   14  H              -3.3478    2.4931    2.1310      1.00      1.00        1.0078
   15  H              -1.8551    2.7062    1.1699      1.00      1.00        1.0078
   16  C              -3.9620   -0.8015   -1.2108      6.00      6.00       12.0000
   17  C              -5.3130   -1.2406   -0.6450      6.00      6.00       12.0000
   18  H              -5.9378   -0.3931   -0.3333      1.00      1.00        1.0078
   19  H              -5.8662   -1.7880   -1.4264      1.00      1.00        1.0078
   20  H              -5.2076   -1.9219    0.2097      1.00      1.00        1.0078
   21  C              -4.1901   -0.0354   -2.5185      6.00      6.00       12.0000
   22  H              -3.2412    0.3196   -2.9485      1.00      1.00        1.0078
   23  H              -4.6424   -0.7267   -3.2482      1.00      1.00        1.0078
   24  H              -4.8742    0.8157   -2.4123      1.00      1.00        1.0078
   25  C              -3.1337   -2.0331   -1.6032      6.00      6.00       12.0000
   26  H              -3.7258   -2.6475   -2.3016      1.00      1.00        1.0078
   27  H              -2.2122   -1.7254   -2.1176      1.00      1.00        1.0078
   28  H              -2.8497   -2.6674   -0.7573      1.00      1.00        1.0078
   29  C              -2.9722   -0.4634    1.7297      6.00      6.00       12.0000
   30  C              -4.2924   -0.2253    2.4646      6.00      6.00       12.0000
   31  H              -4.4744    0.8400    2.6607      1.00      1.00        1.0078
   32  H              -4.2486   -0.7288    3.4447      1.00      1.00        1.0078
   33  H              -5.1602   -0.6281    1.9274      1.00      1.00        1.0078
   34  C              -1.8205    0.1282    2.5561      6.00      6.00       12.0000
   35  H              -0.8564    0.0028    2.0446      1.00      1.00        1.0078
   36  H              -1.7661   -0.4151    3.5138      1.00      1.00        1.0078
   37  H              -1.9508    1.1893    2.7894      1.00      1.00        1.0078
   38  C              -2.6986   -1.9697    1.6483      6.00      6.00       12.0000
   39  H              -1.7661   -2.1860    1.1068      1.00      1.00        1.0078
   40  H              -2.5806   -2.3549    2.6740      1.00      1.00        1.0078
   41  H              -3.5185   -2.5324    1.1842      1.00      1.00        1.0078
   42  C               0.5671   -1.0662   -0.1829      6.00      6.00       12.0000
   43  C               0.3239   -2.3138   -0.7833      6.00      6.00       12.0000
   44  H              -0.0854   -2.3684   -1.7920      1.00      1.00        1.0078
   45  C               0.5674   -3.4708   -0.0578      6.00      6.00       12.0000
   46  H               0.3292   -4.4508   -0.4765      1.00      1.00        1.0078
   47  C               1.1061   -3.4183    1.2418      6.00      6.00       12.0000
   48  C               1.4912   -2.1900    1.7773      6.00      6.00       12.0000
   49  H               2.0096   -2.1230    2.7321      1.00      1.00        1.0078
   50  C               1.2726   -1.0153    1.0399      6.00      6.00       12.0000
   51  C               1.8787    0.2798    1.2883      6.00      6.00       12.0000
   52  C               2.4178    0.7798    2.4703      6.00      6.00       12.0000
   53  C               3.0101    2.0381    2.4977      6.00      6.00       12.0000
   54  C               3.0538    2.8115    1.3363      6.00      6.00       12.0000
   55  C               2.5015    2.3429    0.1437      6.00      6.00       12.0000
   56  C               1.9382    1.0661    0.1078      6.00      6.00       12.0000
   57  N               1.3047    0.4779   -0.9976      7.00      7.00       14.0031
   58  S               2.1097    0.1344   -2.4293     16.00     16.00       31.9721
   59  O               1.1297   -0.5310   -3.2712      8.00      8.00       15.9949
   60  O               2.8490    1.2934   -2.8880      8.00      8.00       15.9949
   61  C               3.3235   -1.0855   -1.8639      6.00      6.00       12.0000
   62  Cl              4.3772   -1.5726   -3.1843     17.00     17.00       34.9689
   63  H               2.7739   -1.9521   -1.4751      1.00      1.00        1.0078
   64  H               3.9131   -0.6057   -1.0708      1.00      1.00        1.0078
   65  F               2.4832    3.1508   -0.8968      9.00      9.00       18.9984
   66  F               3.5791    4.0233    1.3850      9.00      9.00       18.9984
   67  F               3.5151    2.5174    3.6221      9.00      9.00       18.9984
   68  F               2.3655    0.0761    3.5982      9.00      9.00       18.9984
   69  O               1.2555   -4.6042    1.8700      8.00      8.00       15.9949
   70  C               1.8180   -4.6128    3.1507      6.00      6.00       12.0000
   71  H               1.2275   -4.0079    3.8622      1.00      1.00        1.0078
   72  H               2.8567   -4.2366    3.1476      1.00      1.00        1.0078
   73  H               1.8214   -5.6569    3.4882      1.00      1.00        1.0078


 FRAGMENTS
 =========                                     Atoms in this Fragment     Cart. coord.s (Angstrom)
                                               -------------------------------------------------------
    1  pdsubstrate                                       1  Pd          -0.7140    0.4063   -0.7772
                                                        66  F            3.5791    4.0233    1.3850
                                                        67  F            3.5151    2.5174    3.6221
                                                        68  F            2.3655    0.0761    3.5982
                                                        65  F            2.4832    3.1508   -0.8968
                                                        69  O            1.2555   -4.6042    1.8700
                                                        59  O            1.1297   -0.5310   -3.2712
                                                        60  O            2.8490    1.2934   -2.8880
                                                        70  C            1.8180   -4.6128    3.1507
                                                        42  C            0.5671   -1.0662   -0.1829
                                                        43  C            0.3239   -2.3138   -0.7833
                                                        45  C            0.5674   -3.4708   -0.0578
                                                        47  C            1.1061   -3.4183    1.2418
                                                        48  C            1.4912   -2.1900    1.7773
                                                        50  C            1.2726   -1.0153    1.0399
                                                        51  C            1.8787    0.2798    1.2883
                                                        52  C            2.4178    0.7798    2.4703
                                                        53  C            3.0101    2.0381    2.4977
                                                        54  C            3.0538    2.8115    1.3363
                                                        55  C            2.5015    2.3429    0.1437
                                                        56  C            1.9382    1.0661    0.1078
                                                        61  C            3.3235   -1.0855   -1.8639
                                                        71  H            1.2275   -4.0079    3.8622
                                                        72  H            2.8567   -4.2366    3.1476
                                                        73  H            1.8214   -5.6569    3.4882
                                                        44  H           -0.0854   -2.3684   -1.7920
                                                        46  H            0.3292   -4.4508   -0.4765
                                                        49  H            2.0096   -2.1230    2.7321
                                                        63  H            2.7739   -1.9521   -1.4751
                                                        64  H            3.9131   -0.6057   -1.0708
                                                        57  N            1.3047    0.4779   -0.9976
                                                        58  S            2.1097    0.1344   -2.4293
                                                        62  Cl           4.3772   -1.5726   -3.1843
    2  ligand                                           41  H           -3.5185   -2.5324    1.1842
                                                         5  H           -3.4594    2.3361   -2.2144
                                                         6  H           -3.3480    3.8155   -1.2443
                                                         7  H           -1.9579    2.7117   -1.3415
                                                         9  H           -5.6025    1.7517   -0.8159
                                                        10  H           -5.3689    3.2424    0.1075
                                                        11  H           -5.5114    1.6930    0.9582
                                                        13  H           -3.1840    3.8802    1.0433
                                                        14  H           -3.3478    2.4931    2.1310
                                                        15  H           -1.8551    2.7062    1.1699
                                                        18  H           -5.9378   -0.3931   -0.3333
                                                        19  H           -5.8662   -1.7880   -1.4264
                                                        20  H           -5.2076   -1.9219    0.2097
                                                        22  H           -3.2412    0.3196   -2.9485
                                                        23  H           -4.6424   -0.7267   -3.2482
                                                        24  H           -4.8742    0.8157   -2.4123
                                                        26  H           -3.7258   -2.6475   -2.3016
                                                        27  H           -2.2122   -1.7254   -2.1176
                                                        28  H           -2.8497   -2.6674   -0.7573
                                                        31  H           -4.4744    0.8400    2.6607
                                                        32  H           -4.2486   -0.7288    3.4447
                                                        33  H           -5.1602   -0.6281    1.9274
                                                        35  H           -0.8564    0.0028    2.0446
                                                        36  H           -1.7661   -0.4151    3.5138
                                                        37  H           -1.9508    1.1893    2.7894
                                                        39  H           -1.7661   -2.1860    1.1068
                                                        40  H           -2.5806   -2.3549    2.6740
                                                         2  P           -2.8913    0.2636   -0.0383
                                                         3  C           -3.5756    2.0504   -0.0177
                                                         4  C           -3.0596    2.7520   -1.2844
                                                         8  C           -5.0975    2.1743    0.0623
                                                        12  C           -2.9511    2.8090    1.1580
                                                        16  C           -3.9620   -0.8015   -1.2108
                                                        17  C           -5.3130   -1.2406   -0.6450
                                                        21  C           -4.1901   -0.0354   -2.5185
                                                        25  C           -3.1337   -2.0331   -1.6032
                                                        29  C           -2.9722   -0.4634    1.7297
                                                        30  C           -4.2924   -0.2253    2.4646
                                                        34  C           -1.8205    0.1282    2.5561
                                                        38  C           -2.6986   -1.9697    1.6483



 =====================================
 S Y M M E T R Y ,   E L E C T R O N S
 =====================================
  
 Symmetry: NOSYM

 Irreducible Representations, including subspecies
 -------------------------------------------------
 A


 Configuration of Valence Electrons
 ==================================
 ( determined in the SCF procedure )

 Total:   352

 Net Charge: 0 (Nuclei minus Electrons)

 Aufbau principle for MO occupations will be applied through SCF cycle no.     150
 Thereafter, the program will assign electrons to MOs that are spatially
 similar to the occupied MOs in a "reference" cycle ("KeepOrbitals").
 The reference cycle is always the PREVIOUS cycle: it will evolve with
 the SCF procedure.
1
 ***************************************************************************************************



                                      ****************************************
                                      *  B U I L D : (Fragments, Functions)  *
                                      ****************************************
  

 The individual fragments are copies of the corresponding 'Master' fragments defined on the fragment files.
 However, they may have been rotated (and translated) with respect to the Master. The local coordinate axes
 of each fragment (which define for instance the spatial orientation in the current molecule of a fragment
 P:x orbital) are not necessarily those of the molecule.
 The local frame (if different from the molecular one) is printed to enable an interpretation of the expan-
 sion of an MO in Fragment Orbitals.



                                         *********************************
                                         *  Fragment Type : pdsubstrate  *
                                         *********************************
  

 Fragment no.    1   (in the list of all fragments)
 -----------------
 The local coordinate frame is identical to the molecular frame.

 Check Atomic Coordinates:

                  Master (on file)          After Computed Tranformation               As specified on Input
           ----------------------------     ----------------------------     ---------------------------------
     1)    -0.71403   0.40626  -0.77723     -0.71403   0.40626  -0.77723       1  -0.71403   0.40626  -0.77723
     2)     3.57907   4.02333   1.38504      3.57907   4.02333   1.38504      66   3.57907   4.02333   1.38504
     3)     3.51511   2.51736   3.62209      3.51511   2.51736   3.62209      67   3.51511   2.51736   3.62209
     4)     2.36554   0.07610   3.59823      2.36554   0.07610   3.59823      68   2.36554   0.07610   3.59823
     5)     2.48322   3.15076  -0.89676      2.48322   3.15076  -0.89676      65   2.48322   3.15076  -0.89676
     6)     1.25546  -4.60419   1.87001      1.25546  -4.60419   1.87001      69   1.25546  -4.60419   1.87001
     7)     1.12969  -0.53095  -3.27122      1.12969  -0.53095  -3.27122      59   1.12969  -0.53095  -3.27122
     8)     2.84899   1.29340  -2.88805      2.84899   1.29340  -2.88805      60   2.84899   1.29340  -2.88805
     9)     1.81802  -4.61277   3.15075      1.81802  -4.61277   3.15075      70   1.81802  -4.61277   3.15075
    10)     0.56708  -1.06618  -0.18286      0.56708  -1.06618  -0.18286      42   0.56708  -1.06618  -0.18286
    11)     0.32386  -2.31381  -0.78329      0.32386  -2.31381  -0.78329      43   0.32386  -2.31381  -0.78329
    12)     0.56745  -3.47077  -0.05779      0.56745  -3.47077  -0.05779      45   0.56745  -3.47077  -0.05779
    13)     1.10608  -3.41829   1.24178      1.10608  -3.41829   1.24178      47   1.10608  -3.41829   1.24178
    14)     1.49123  -2.19005   1.77725      1.49123  -2.19005   1.77725      48   1.49123  -2.19005   1.77725
    15)     1.27262  -1.01527   1.03986      1.27262  -1.01527   1.03986      50   1.27262  -1.01527   1.03986
    16)     1.87875   0.27979   1.28828      1.87875   0.27979   1.28828      51   1.87875   0.27979   1.28828
    17)     2.41780   0.77983   2.47028      2.41780   0.77983   2.47028      52   2.41780   0.77983   2.47028
    18)     3.01014   2.03805   2.49774      3.01014   2.03805   2.49774      53   3.01014   2.03805   2.49774
    19)     3.05379   2.81152   1.33627      3.05379   2.81152   1.33627      54   3.05379   2.81152   1.33627
    20)     2.50149   2.34293   0.14367      2.50149   2.34293   0.14367      55   2.50149   2.34293   0.14367
    21)     1.93824   1.06614   0.10776      1.93824   1.06614   0.10776      56   1.93824   1.06614   0.10776
    22)     3.32350  -1.08552  -1.86389      3.32350  -1.08552  -1.86389      61   3.32350  -1.08552  -1.86389
    23)     1.22751  -4.00791   3.86224      1.22751  -4.00791   3.86224      71   1.22751  -4.00791   3.86224
    24)     2.85673  -4.23657   3.14758      2.85673  -4.23657   3.14758      72   2.85673  -4.23657   3.14758
    25)     1.82141  -5.65692   3.48821      1.82141  -5.65692   3.48821      73   1.82141  -5.65692   3.48821
    26)    -0.08545  -2.36843  -1.79197     -0.08545  -2.36843  -1.79197      44  -0.08545  -2.36843  -1.79197
    27)     0.32925  -4.45075  -0.47649      0.32925  -4.45075  -0.47649      46   0.32925  -4.45075  -0.47649
    28)     2.00962  -2.12298   2.73210      2.00962  -2.12298   2.73210      49   2.00962  -2.12298   2.73210
    29)     2.77395  -1.95211  -1.47510      2.77395  -1.95211  -1.47510      63   2.77395  -1.95211  -1.47510
    30)     3.91311  -0.60567  -1.07080      3.91311  -0.60567  -1.07080      64   3.91311  -0.60567  -1.07080
    31)     1.30469   0.47792  -0.99763      1.30469   0.47792  -0.99763      57   1.30469   0.47792  -0.99763
    32)     2.10972   0.13437  -2.42931      2.10972   0.13437  -2.42931      58   2.10972   0.13437  -2.42931
    33)     4.37723  -1.57256  -3.18435      4.37723  -1.57256  -3.18435      62   4.37723  -1.57256  -3.18435



                                            ****************************
                                            *  Fragment Type : ligand  *
                                            ****************************
  

 Fragment no.    2   (in the list of all fragments)
 -----------------
 The local coordinate frame is identical to the molecular frame.

 Check Atomic Coordinates:

                  Master (on file)          After Computed Tranformation               As specified on Input
           ----------------------------     ----------------------------     ---------------------------------
     1)    -3.51854  -2.53241   1.18417     -3.51854  -2.53241   1.18417      41  -3.51854  -2.53241   1.18417
     2)    -3.45939   2.33608  -2.21444     -3.45939   2.33608  -2.21444       5  -3.45939   2.33608  -2.21444
     3)    -3.34800   3.81555  -1.24431     -3.34800   3.81555  -1.24431       6  -3.34800   3.81555  -1.24431
     4)    -1.95792   2.71175  -1.34155     -1.95792   2.71175  -1.34155       7  -1.95792   2.71175  -1.34155
     5)    -5.60248   1.75174  -0.81595     -5.60248   1.75174  -0.81595       9  -5.60248   1.75174  -0.81595
     6)    -5.36887   3.24238   0.10752     -5.36887   3.24238   0.10752      10  -5.36887   3.24238   0.10752
     7)    -5.51137   1.69304   0.95820     -5.51137   1.69304   0.95820      11  -5.51137   1.69304   0.95820
     8)    -3.18403   3.88016   1.04327     -3.18403   3.88016   1.04327      13  -3.18403   3.88016   1.04327
     9)    -3.34776   2.49311   2.13102     -3.34776   2.49311   2.13102      14  -3.34776   2.49311   2.13102
    10)    -1.85509   2.70616   1.16988     -1.85509   2.70616   1.16988      15  -1.85509   2.70616   1.16988
    11)    -5.93777  -0.39310  -0.33331     -5.93777  -0.39310  -0.33331      18  -5.93777  -0.39310  -0.33331
    12)    -5.86624  -1.78796  -1.42639     -5.86624  -1.78796  -1.42639      19  -5.86624  -1.78796  -1.42639
    13)    -5.20758  -1.92186   0.20968     -5.20758  -1.92186   0.20968      20  -5.20758  -1.92186   0.20968
    14)    -3.24121   0.31958  -2.94850     -3.24121   0.31958  -2.94850      22  -3.24121   0.31958  -2.94850
    15)    -4.64237  -0.72671  -3.24816     -4.64237  -0.72671  -3.24816      23  -4.64237  -0.72671  -3.24816
    16)    -4.87418   0.81570  -2.41226     -4.87418   0.81570  -2.41226      24  -4.87418   0.81570  -2.41226
    17)    -3.72581  -2.64753  -2.30164     -3.72581  -2.64753  -2.30164      26  -3.72581  -2.64753  -2.30164
    18)    -2.21215  -1.72542  -2.11755     -2.21215  -1.72542  -2.11755      27  -2.21215  -1.72542  -2.11755
    19)    -2.84972  -2.66740  -0.75732     -2.84972  -2.66740  -0.75732      28  -2.84972  -2.66740  -0.75732
    20)    -4.47439   0.83998   2.66073     -4.47439   0.83998   2.66073      31  -4.47439   0.83998   2.66073
    21)    -4.24859  -0.72885   3.44474     -4.24859  -0.72885   3.44474      32  -4.24859  -0.72885   3.44474
    22)    -5.16024  -0.62813   1.92742     -5.16024  -0.62813   1.92742      33  -5.16024  -0.62813   1.92742
    23)    -0.85642   0.00276   2.04458     -0.85642   0.00276   2.04458      35  -0.85642   0.00276   2.04458
    24)    -1.76611  -0.41511   3.51378     -1.76611  -0.41511   3.51378      36  -1.76611  -0.41511   3.51378
    25)    -1.95084   1.18934   2.78942     -1.95084   1.18934   2.78942      37  -1.95084   1.18934   2.78942
    26)    -1.76613  -2.18601   1.10676     -1.76613  -2.18601   1.10676      39  -1.76613  -2.18601   1.10676
    27)    -2.58063  -2.35492   2.67399     -2.58063  -2.35492   2.67399      40  -2.58063  -2.35492   2.67399
    28)    -2.89132   0.26356  -0.03834     -2.89132   0.26356  -0.03834       2  -2.89132   0.26356  -0.03834
    29)    -3.57559   2.05043  -0.01774     -3.57559   2.05043  -0.01774       3  -3.57559   2.05043  -0.01774
    30)    -3.05963   2.75197  -1.28435     -3.05963   2.75197  -1.28435       4  -3.05963   2.75197  -1.28435
    31)    -5.09752   2.17428   0.06233     -5.09752   2.17428   0.06233       8  -5.09752   2.17428   0.06233
    32)    -2.95112   2.80896   1.15801     -2.95112   2.80896   1.15801      12  -2.95112   2.80896   1.15801
    33)    -3.96196  -0.80150  -1.21083     -3.96196  -0.80150  -1.21083      16  -3.96196  -0.80150  -1.21083
    34)    -5.31301  -1.24064  -0.64497     -5.31301  -1.24064  -0.64497      17  -5.31301  -1.24064  -0.64497
    35)    -4.19014  -0.03542  -2.51851     -4.19014  -0.03542  -2.51851      21  -4.19014  -0.03542  -2.51851
    36)    -3.13369  -2.03312  -1.60316     -3.13369  -2.03312  -1.60316      25  -3.13369  -2.03312  -1.60316
    37)    -2.97220  -0.46344   1.72973     -2.97220  -0.46344   1.72973      29  -2.97220  -0.46344   1.72973
    38)    -4.29244  -0.22526   2.46458     -4.29244  -0.22526   2.46458      30  -4.29244  -0.22526   2.46458
    39)    -1.82050   0.12819   2.55605     -1.82050   0.12819   2.55605      34  -1.82050   0.12819   2.55605
    40)    -2.69861  -1.96970   1.64826     -2.69861  -1.96970   1.64826      38  -2.69861  -1.96970   1.64826

 Total nr. of (C)SFOs (summation over all irreps) :  1003

 Specify PRINT SFO in the input file to get a full list

 Nr. of SFOs for ir.rep.           A :  1003



 ================================
 (Slater-type)  F U N C T I O N S  ***  (Basis and Fit)  ***
 ================================
  

 Atom Type    1  (Pd)
 ==============

 Valence Basis Sets:  26
 -----------------------
   1 S  306.000000
   1 S   76.400000
   1 S   45.900000
   2 S   53.800000
   2 S   19.550000
   3 S   10.150000
   3 S    6.650000
   4 S    6.150000
   4 S    3.900000
   5 S    2.500000
   5 S    1.450000
   5 S    0.850000
   2 P   29.100000
   2 P   18.750000
   3 P   11.250000
   3 P    8.100000
   4 P    5.950000
   4 P    3.950000
   4 P    2.700000
   3 D   17.550000
   3 D   10.450000
   3 D    6.900000
   4 D    4.250000
   4 D    2.200000
   4 D    1.100000
   5 P    1.450000

 Charge Fitting Sets (for the computation of the Coulomb Potential):  58
 -----------------------------------------------------------------------
   1 S  612.000000
   1 S  446.101000
   1 S  325.174000
   1 S  237.027000
   1 S  172.774000
   1 S  125.939000
   1 S   91.800000
   1 S   53.670000
   2 S   58.190000
   2 S   38.430000
   3 S   37.300000
   3 S   26.280000
   4 S   24.500000
   4 S   18.000000
   5 S   16.470000
   5 S   12.460000
   6 S   11.300000
   6 S    8.740000
   7 S    7.890000
   7 S    6.210000
   8 S    5.590000
   8 S    4.470000
   8 S    3.570000
   9 S    3.210000
   9 S    2.600000
   9 S    2.100000
   9 S    1.700000
   2 P   64.650000
   3 P   49.410000
   4 P   37.530000
   5 P   28.620000
   6 P   21.980000
   6 P   14.500000
   7 P   11.220000
   7 P    7.620000
   8 P    5.940000
   8 P    4.130000
   9 P    3.240000
   9 P    2.300000
   3 D   56.350000
   4 D   37.260000
   5 D   25.120000
   6 D   17.230000
   6 D   10.190000
   7 D    7.110000
   7 D    4.360000
   8 D    3.090000
   8 D    1.950000
   4 F   47.900000
   5 F   28.270000
   6 F   17.190000
   6 F    9.040000
   7 F    5.640000
   7 F    3.100000
   5 G   20.900000
   6 G    9.980000
   7 G    4.980000
   7 G    2.200000

 Atom Type    2  (F)
 ==============

 Valence Basis Sets:   9
 -----------------------
   1 S   10.880000
   1 S    7.700000
   2 S    3.240000
   2 S    1.940000
   2 S    0.740000
   2 P    4.540000
   2 P    2.300000
   2 P    1.240000
   3 D    2.000000

 Charge Fitting Sets (for the computation of the Coulomb Potential):  23
 -----------------------------------------------------------------------
   1 S   21.760000
   2 S   24.390000
   2 S   16.560000
   2 S   11.240000
   2 S    7.630000
   3 S    7.600000
   3 S    5.480000
   3 S    3.950000
   3 S    2.850000
   3 S    2.050000
   3 S    1.480000
   2 P   14.400000
   2 P    7.530000
   3 P    5.900000
   3 P    3.420000
   3 P    1.980000
   3 D    9.700000
   3 D    6.160000
   3 D    3.910000
   3 D    2.480000
   4 F    6.500000
   4 F    3.750000
   5 G    4.500000

 Atom Type    3  (O)
 ==============

 Valence Basis Sets:   9
 -----------------------
   1 S    9.800000
   1 S    6.800000
   2 S    7.580000
   2 S    2.880000
   2 S    1.720000
   2 P    4.080000
   2 P    2.080000
   2 P    1.120000
   3 D    2.000000

 Charge Fitting Sets (for the computation of the Coulomb Potential):  22
 -----------------------------------------------------------------------
   1 S   19.600000
   2 S   22.600000
   2 S   15.680000
   2 S   10.890000
   2 S    7.560000
   3 S    7.690000
   3 S    5.650000
   3 S    4.150000
   3 S    3.050000
   3 S    2.240000
   2 P   12.860000
   2 P    7.680000
   3 P    6.780000
   3 P    4.390000
   3 P    2.840000
   3 D    8.800000
   3 D    5.580000
   3 D    3.530000
   3 D    2.240000
   4 F    6.200000
   4 F    3.700000
   5 G    4.500000

 Atom Type    4  (C)
 ==============

 Valence Basis Sets:   9
 -----------------------
   1 S    7.680000
   1 S    5.000000
   2 S    1.280000
   2 S    2.100000
   2 S    4.600000
   2 P    0.820000
   2 P    1.480000
   2 P    2.940000
   3 D    2.200000

 Charge Fitting Sets (for the computation of the Coulomb Potential):  22
 -----------------------------------------------------------------------
   1 S   15.360000
   2 S   17.530000
   2 S   12.070000
   2 S    8.310000
   2 S    5.730000
   3 S    5.780000
   3 S    4.220000
   3 S    3.080000
   3 S    2.250000
   3 S    1.640000
   2 P    9.880000
   2 P    5.800000
   3 P    5.050000
   3 P    3.230000
   3 P    2.060000
   3 D    7.200000
   3 D    4.400000
   3 D    2.690000
   3 D    1.640000
   4 F    5.400000
   4 F    3.550000
   5 G    4.500000

 Atom Type    5  (H)
 ==============

 Valence Basis Sets:   4
 -----------------------
   1 S    0.690000
   1 S    0.920000
   1 S    1.580000
   2 P    1.250000

 Charge Fitting Sets (for the computation of the Coulomb Potential):  11
 -----------------------------------------------------------------------
   1 S    3.160000
   1 S    2.090000
   1 S    1.380000
   2 S    1.500000
   2 P    4.000000
   2 P    2.650000
   2 P    1.750000
   3 D    4.000000
   3 D    2.500000
   4 F    3.000000
   5 G    4.000000

 Atom Type    6  (N)
 ==============

 Valence Basis Sets:   9
 -----------------------
   1 S    8.740000
   1 S    5.900000
   2 S    5.150000
   2 S    2.500000
   2 S    1.500000
   2 P    3.680000
   2 P    1.880000
   2 P    1.000000
   3 D    2.200000

 Charge Fitting Sets (for the computation of the Coulomb Potential):  22
 -----------------------------------------------------------------------
   1 S   17.480000
   2 S   20.150000
   2 S   13.990000
   2 S    9.710000
   2 S    6.740000
   3 S    6.860000
   3 S    5.040000
   3 S    3.700000
   3 S    2.720000
   3 S    2.000000
   2 P   11.320000
   2 P    6.730000
   3 P    5.920000
   3 P    3.820000
   3 P    2.460000
   3 D    8.100000
   3 D    5.080000
   3 D    3.190000
   3 D    2.000000
   4 F    5.800000
   4 F    3.600000
   5 G    4.500000

 Atom Type    7  (S)
 ==============

 Valence Basis Sets:  13
 -----------------------
   1 S   19.400000
   1 S   14.350000
   2 S    5.900000
   2 S    4.250000
   2 P    8.050000
   2 P    4.550000
   3 S    3.450000
   3 S    2.250000
   3 S    1.500000
   3 P    2.650000
   3 P    1.600000
   3 P    1.000000
   3 D    2.100000

 Charge Fitting Sets (for the computation of the Coulomb Potential):  30
 -----------------------------------------------------------------------
   1 S   38.800000
   1 S   23.350000
   2 S   26.020000
   2 S   17.570000
   3 S   17.420000
   3 S   12.500000
   3 S    8.980000
   4 S    8.520000
   4 S    6.360000
   4 S    4.750000
   5 S    4.420000
   5 S    3.390000
   5 S    2.600000
   5 S    2.000000
   2 P   27.450000
   3 P   20.250000
   4 P   14.920000
   4 P    8.780000
   5 P    6.520000
   5 P    4.040000
   5 P    2.500000
   3 D   20.900000
   4 D   14.560000
   4 D    8.130000
   5 D    5.740000
   5 D    3.390000
   5 D    2.000000
   4 F    5.000000
   4 F    3.000000
   5 G    3.620000

 Atom Type    8  (Cl)
 ==============

 Valence Basis Sets:  13
 -----------------------
   1 S   20.300000
   1 S   15.250000
   2 S    6.250000
   2 S    4.450000
   2 P    8.850000
   2 P    5.050000
   3 S    3.450000
   3 S    2.300000
   3 S    1.600000
   3 P    3.350000
   3 P    2.050000
   3 P    1.200000
   3 D    2.000000

 Charge Fitting Sets (for the computation of the Coulomb Potential):  30
 -----------------------------------------------------------------------
   1 S   40.600000
   1 S   24.830000
   2 S   28.080000
   2 S   19.200000
   3 S   19.250000
   3 S   13.970000
   3 S   10.130000
   4 S    9.710000
   4 S    7.320000
   4 S    5.510000
   5 S    5.170000
   5 S    4.000000
   5 S    3.100000
   5 S    2.400000
   2 P   29.150000
   3 P   21.740000
   4 P   16.160000
   4 P    9.600000
   5 P    7.180000
   5 P    4.480000
   5 P    2.800000
   3 D   21.950000
   4 D   15.750000
   4 D    9.040000
   5 D    6.550000
   5 D    3.960000
   5 D    2.400000
   4 F    5.000000
   4 F    3.000000
   5 G    3.500000

 Atom Type    9  (H)
 ==============

 Valence Basis Sets:   4
 -----------------------
   1 S    0.690000
   1 S    0.920000
   1 S    1.580000
   2 P    1.250000

 Charge Fitting Sets (for the computation of the Coulomb Potential):  11
 -----------------------------------------------------------------------
   1 S    3.160000
   1 S    2.090000
   1 S    1.380000
   2 S    1.500000
   2 P    4.000000
   2 P    2.650000
   2 P    1.750000
   3 D    4.000000
   3 D    2.500000
   4 F    3.000000
   5 G    4.000000

 Atom Type   10  (P)
 ==============

 Valence Basis Sets:  13
 -----------------------
   1 S   18.000000
   1 S   13.350000
   2 S    5.600000
   2 S    4.050000
   2 P    7.450000
   2 P    4.100000
   3 S    2.700000
   3 S    1.850000
   3 S    1.300000
   3 P    2.300000
   3 P    1.350000
   3 P    0.850000
   3 D    1.900000

 Charge Fitting Sets (for the computation of the Coulomb Potential):  30
 -----------------------------------------------------------------------
   1 S   36.000000
   1 S   21.450000
   2 S   23.670000
   2 S   15.860000
   3 S   15.600000
   3 S   11.130000
   3 S    7.940000
   4 S    7.490000
   4 S    5.560000
   4 S    4.130000
   5 S    3.810000
   5 S    2.910000
   5 S    2.230000
   5 S    1.700000
   2 P   25.450000
   3 P   18.490000
   4 P   13.440000
   4 P    7.810000
   5 P    5.730000
   5 P    3.510000
   5 P    2.150000
   3 D   19.350000
   4 D   13.230000
   4 D    7.250000
   5 D    5.040000
   5 D    2.930000
   5 D    1.700000
   4 F    5.000000
   4 F    3.000000
   5 G    3.750000

 Atom Type   11  (C)
 ==============

 Valence Basis Sets:   9
 -----------------------
   1 S    7.680000
   1 S    5.000000
   2 S    1.280000
   2 S    2.100000
   2 S    4.600000
   2 P    0.820000
   2 P    1.480000
   2 P    2.940000
   3 D    2.200000

 Charge Fitting Sets (for the computation of the Coulomb Potential):  22
 -----------------------------------------------------------------------
   1 S   15.360000
   2 S   17.530000
   2 S   12.070000
   2 S    8.310000
   2 S    5.730000
   3 S    5.780000
   3 S    4.220000
   3 S    3.080000
   3 S    2.250000
   3 S    1.640000
   2 P    9.880000
   2 P    5.800000
   3 P    5.050000
   3 P    3.230000
   3 P    2.060000
   3 D    7.200000
   3 D    4.400000
   3 D    2.690000
   3 D    1.640000
   4 F    5.400000
   4 F    3.550000
   5 G    4.500000


 BAS: List of all Elementary Cartesian Basis Functions
 =====================================================

 The numbering in the list below (to the right of the function characteristics) is referred
 to in print-outs of MO eigenvectors and Mulliken populations in the BAS representation
 (as contrasted to the SFO representation).

 Notes:
 1. The functions are characterized by a polynomial prefactor (powers of x,y,z and r) and
    an exponential decay factor alpha.
 2. Since the basis sets are specific for an atom TYPE, the individual functions occur on
    all atoms of that type.
 3. The word 'Core' in the left margin signals that it is a Core Function (CF) : not a
    degree of freedom in the valence set, but only used to ensure orthogonalization of
    the other valence basis functions on the frozen Core Orbitals.


 (power of) X  Y  Z  R     Alpha  on Atom
            ==========     =====     ==========

 Pd                                   1
                                  ---------------------------------------------------------------------------
            0  0  0  0   306.000      1
            0  0  0  0    76.400      2
            0  0  0  0    45.900      3
            0  0  0  1    53.800      4
            0  0  0  1    19.550      5
            0  0  0  2    10.150      6
            0  0  0  2     6.650      7
            0  0  0  3     6.150      8
            0  0  0  3     3.900      9
            0  0  0  4     2.500     10
            0  0  0  4     1.450     11
            0  0  0  4     0.850     12
            1  0  0  0    29.100     13
            0  1  0  0    29.100     14
            0  0  1  0    29.100     15
            1  0  0  0    18.750     16
            0  1  0  0    18.750     17
            0  0  1  0    18.750     18
            1  0  0  1    11.250     19
            0  1  0  1    11.250     20
            0  0  1  1    11.250     21
            1  0  0  1     8.100     22
            0  1  0  1     8.100     23
            0  0  1  1     8.100     24
            1  0  0  2     5.950     25
            0  1  0  2     5.950     26
            0  0  1  2     5.950     27
            1  0  0  2     3.950     28
            0  1  0  2     3.950     29
            0  0  1  2     3.950     30
            1  0  0  2     2.700     31
            0  1  0  2     2.700     32
            0  0  1  2     2.700     33
            2  0  0  0    17.550     34
            1  1  0  0    17.550     35
            1  0  1  0    17.550     36
            0  2  0  0    17.550     37
            0  1  1  0    17.550     38
            0  0  2  0    17.550     39
            2  0  0  0    10.450     40
            1  1  0  0    10.450     41
            1  0  1  0    10.450     42
            0  2  0  0    10.450     43
            0  1  1  0    10.450     44
            0  0  2  0    10.450     45
            2  0  0  0     6.900     46
            1  1  0  0     6.900     47
            1  0  1  0     6.900     48
            0  2  0  0     6.900     49
            0  1  1  0     6.900     50
            0  0  2  0     6.900     51
            2  0  0  1     4.250     52
            1  1  0  1     4.250     53
            1  0  1  1     4.250     54
            0  2  0  1     4.250     55
            0  1  1  1     4.250     56
            0  0  2  1     4.250     57
            2  0  0  1     2.200     58
            1  1  0  1     2.200     59
            1  0  1  1     2.200     60
            0  2  0  1     2.200     61
            0  1  1  1     2.200     62
            0  0  2  1     2.200     63
            2  0  0  1     1.100     64
            1  1  0  1     1.100     65
            1  0  1  1     1.100     66
            0  2  0  1     1.100     67
            0  1  1  1     1.100     68
            0  0  2  1     1.100     69
            1  0  0  3     1.450     70
            0  1  0  3     1.450     71
            0  0  1  3     1.450     72

 F                                    2    3    4    5
                                  ---------------------------------------------------------------------------
            0  0  0  0    10.880     73   93  113  133
            0  0  0  0     7.700     74   94  114  134
            0  0  0  1     3.240     75   95  115  135
            0  0  0  1     1.940     76   96  116  136
            0  0  0  1     0.740     77   97  117  137
            1  0  0  0     4.540     78   98  118  138
            0  1  0  0     4.540     79   99  119  139
            0  0  1  0     4.540     80  100  120  140
            1  0  0  0     2.300     81  101  121  141
            0  1  0  0     2.300     82  102  122  142
            0  0  1  0     2.300     83  103  123  143
            1  0  0  0     1.240     84  104  124  144
            0  1  0  0     1.240     85  105  125  145
            0  0  1  0     1.240     86  106  126  146
            2  0  0  0     2.000     87  107  127  147
            1  1  0  0     2.000     88  108  128  148
            1  0  1  0     2.000     89  109  129  149
            0  2  0  0     2.000     90  110  130  150
            0  1  1  0     2.000     91  111  131  151
            0  0  2  0     2.000     92  112  132  152

 O                                    6    7    8
                                  ---------------------------------------------------------------------------
            0  0  0  0     9.800    153  173  193
            0  0  0  0     6.800    154  174  194
            0  0  0  1     7.580    155  175  195
            0  0  0  1     2.880    156  176  196
            0  0  0  1     1.720    157  177  197
            1  0  0  0     4.080    158  178  198
            0  1  0  0     4.080    159  179  199
            0  0  1  0     4.080    160  180  200
            1  0  0  0     2.080    161  181  201
            0  1  0  0     2.080    162  182  202
            0  0  1  0     2.080    163  183  203
            1  0  0  0     1.120    164  184  204
            0  1  0  0     1.120    165  185  205
            0  0  1  0     1.120    166  186  206
            2  0  0  0     2.000    167  187  207
            1  1  0  0     2.000    168  188  208
            1  0  1  0     2.000    169  189  209
            0  2  0  0     2.000    170  190  210
            0  1  1  0     2.000    171  191  211
            0  0  2  0     2.000    172  192  212

 C                                    9   10   11   12   13   14   15   16   17   18   19   20   21   22
                                  ---------------------------------------------------------------------------
            0  0  0  0     7.680    213  233  253  273  293  313  333  353  373  393  413  433  453  473
            0  0  0  0     5.000    214  234  254  274  294  314  334  354  374  394  414  434  454  474
            0  0  0  1     1.280    215  235  255  275  295  315  335  355  375  395  415  435  455  475
            0  0  0  1     2.100    216  236  256  276  296  316  336  356  376  396  416  436  456  476
            0  0  0  1     4.600    217  237  257  277  297  317  337  357  377  397  417  437  457  477
            1  0  0  0     0.820    218  238  258  278  298  318  338  358  378  398  418  438  458  478
            0  1  0  0     0.820    219  239  259  279  299  319  339  359  379  399  419  439  459  479
            0  0  1  0     0.820    220  240  260  280  300  320  340  360  380  400  420  440  460  480
            1  0  0  0     1.480    221  241  261  281  301  321  341  361  381  401  421  441  461  481
            0  1  0  0     1.480    222  242  262  282  302  322  342  362  382  402  422  442  462  482
            0  0  1  0     1.480    223  243  263  283  303  323  343  363  383  403  423  443  463  483
            1  0  0  0     2.940    224  244  264  284  304  324  344  364  384  404  424  444  464  484
            0  1  0  0     2.940    225  245  265  285  305  325  345  365  385  405  425  445  465  485
            0  0  1  0     2.940    226  246  266  286  306  326  346  366  386  406  426  446  466  486
            2  0  0  0     2.200    227  247  267  287  307  327  347  367  387  407  427  447  467  487
            1  1  0  0     2.200    228  248  268  288  308  328  348  368  388  408  428  448  468  488
            1  0  1  0     2.200    229  249  269  289  309  329  349  369  389  409  429  449  469  489
            0  2  0  0     2.200    230  250  270  290  310  330  350  370  390  410  430  450  470  490
            0  1  1  0     2.200    231  251  271  291  311  331  351  371  391  411  431  451  471  491
            0  0  2  0     2.200    232  252  272  292  312  332  352  372  392  412  432  452  472  492

 H                                   23   24   25   26   27   28   29   30
                                  ---------------------------------------------------------------------------
            0  0  0  0     0.690    493  499  505  511  517  523  529  535
            0  0  0  0     0.920    494  500  506  512  518  524  530  536
            0  0  0  0     1.580    495  501  507  513  519  525  531  537
            1  0  0  0     1.250    496  502  508  514  520  526  532  538
            0  1  0  0     1.250    497  503  509  515  521  527  533  539
            0  0  1  0     1.250    498  504  510  516  522  528  534  540

 N                                   31
                                  ---------------------------------------------------------------------------
            0  0  0  0     8.740    541
            0  0  0  0     5.900    542
            0  0  0  1     5.150    543
            0  0  0  1     2.500    544
            0  0  0  1     1.500    545
            1  0  0  0     3.680    546
            0  1  0  0     3.680    547
            0  0  1  0     3.680    548
            1  0  0  0     1.880    549
            0  1  0  0     1.880    550
            0  0  1  0     1.880    551
            1  0  0  0     1.000    552
            0  1  0  0     1.000    553
            0  0  1  0     1.000    554
            2  0  0  0     2.200    555
            1  1  0  0     2.200    556
            1  0  1  0     2.200    557
            0  2  0  0     2.200    558
            0  1  1  0     2.200    559
            0  0  2  0     2.200    560

 S                                   32
                                  ---------------------------------------------------------------------------
            0  0  0  0    19.400    561
            0  0  0  0    14.350    562
            0  0  0  1     5.900    563
            0  0  0  1     4.250    564
            1  0  0  0     8.050    565
            0  1  0  0     8.050    566
            0  0  1  0     8.050    567
            1  0  0  0     4.550    568
            0  1  0  0     4.550    569
            0  0  1  0     4.550    570
            0  0  0  2     3.450    571
            0  0  0  2     2.250    572
            0  0  0  2     1.500    573
            1  0  0  1     2.650    574
            0  1  0  1     2.650    575
            0  0  1  1     2.650    576
            1  0  0  1     1.600    577
            0  1  0  1     1.600    578
            0  0  1  1     1.600    579
            1  0  0  1     1.000    580
            0  1  0  1     1.000    581
            0  0  1  1     1.000    582
            2  0  0  0     2.100    583
            1  1  0  0     2.100    584
            1  0  1  0     2.100    585
            0  2  0  0     2.100    586
            0  1  1  0     2.100    587
            0  0  2  0     2.100    588

 Cl                                  33
                                  ---------------------------------------------------------------------------
            0  0  0  0    20.300    589
            0  0  0  0    15.250    590
            0  0  0  1     6.250    591
            0  0  0  1     4.450    592
            1  0  0  0     8.850    593
            0  1  0  0     8.850    594
            0  0  1  0     8.850    595
            1  0  0  0     5.050    596
            0  1  0  0     5.050    597
            0  0  1  0     5.050    598
            0  0  0  2     3.450    599
            0  0  0  2     2.300    600
            0  0  0  2     1.600    601
            1  0  0  1     3.350    602
            0  1  0  1     3.350    603
            0  0  1  1     3.350    604
            1  0  0  1     2.050    605
            0  1  0  1     2.050    606
            0  0  1  1     2.050    607
            1  0  0  1     1.200    608
            0  1  0  1     1.200    609
            0  0  1  1     1.200    610
            2  0  0  0     2.000    611
            1  1  0  0     2.000    612
            1  0  1  0     2.000    613
            0  2  0  0     2.000    614
            0  1  1  0     2.000    615
            0  0  2  0     2.000    616

 H                                   34   35   36   37   38   39   40   41   42   43   44   45   46   47   48
                                     49   50   51   52   53   54   55   56   57   58   59   60
                                  ---------------------------------------------------------------------------
            0  0  0  0     0.690    617  623  629  635  641  647  653  659  665  671  677  683  689  695  701
                                    707  713  719  725  731  737  743  749  755  761  767  773
            0  0  0  0     0.920    618  624  630  636  642  648  654  660  666  672  678  684  690  696  702
                                    708  714  720  726  732  738  744  750  756  762  768  774
            0  0  0  0     1.580    619  625  631  637  643  649  655  661  667  673  679  685  691  697  703
                                    709  715  721  727  733  739  745  751  757  763  769  775
            1  0  0  0     1.250    620  626  632  638  644  650  656  662  668  674  680  686  692  698  704
                                    710  716  722  728  734  740  746  752  758  764  770  776
            0  1  0  0     1.250    621  627  633  639  645  651  657  663  669  675  681  687  693  699  705
                                    711  717  723  729  735  741  747  753  759  765  771  777
            0  0  1  0     1.250    622  628  634  640  646  652  658  664  670  676  682  688  694  700  706
                                    712  718  724  730  736  742  748  754  760  766  772  778

 P                                   61
                                  ---------------------------------------------------------------------------
            0  0  0  0    18.000    779
            0  0  0  0    13.350    780
            0  0  0  1     5.600    781
            0  0  0  1     4.050    782
            1  0  0  0     7.450    783
            0  1  0  0     7.450    784
            0  0  1  0     7.450    785
            1  0  0  0     4.100    786
            0  1  0  0     4.100    787
            0  0  1  0     4.100    788
            0  0  0  2     2.700    789
            0  0  0  2     1.850    790
            0  0  0  2     1.300    791
            1  0  0  1     2.300    792
            0  1  0  1     2.300    793
            0  0  1  1     2.300    794
            1  0  0  1     1.350    795
            0  1  0  1     1.350    796
            0  0  1  1     1.350    797
            1  0  0  1     0.850    798
            0  1  0  1     0.850    799
            0  0  1  1     0.850    800
            2  0  0  0     1.900    801
            1  1  0  0     1.900    802
            1  0  1  0     1.900    803
            0  2  0  0     1.900    804
            0  1  1  0     1.900    805
            0  0  2  0     1.900    806

 C                                   62   63   64   65   66   67   68   69   70   71   72   73
                                  ---------------------------------------------------------------------------
            0  0  0  0     7.680    807  827  847  867  887  907  927  947  967  987 1007 1027
            0  0  0  0     5.000    808  828  848  868  888  908  928  948  968  988 1008 1028
            0  0  0  1     1.280    809  829  849  869  889  909  929  949  969  989 1009 1029
            0  0  0  1     2.100    810  830  850  870  890  910  930  950  970  990 1010 1030
            0  0  0  1     4.600    811  831  851  871  891  911  931  951  971  991 1011 1031
            1  0  0  0     0.820    812  832  852  872  892  912  932  952  972  992 1012 1032
            0  1  0  0     0.820    813  833  853  873  893  913  933  953  973  993 1013 1033
            0  0  1  0     0.820    814  834  854  874  894  914  934  954  974  994 1014 1034
            1  0  0  0     1.480    815  835  855  875  895  915  935  955  975  995 1015 1035
            0  1  0  0     1.480    816  836  856  876  896  916  936  956  976  996 1016 1036
            0  0  1  0     1.480    817  837  857  877  897  917  937  957  977  997 1017 1037
            1  0  0  0     2.940    818  838  858  878  898  918  938  958  978  998 1018 1038
            0  1  0  0     2.940    819  839  859  879  899  919  939  959  979  999 1019 1039
            0  0  1  0     2.940    820  840  860  880  900  920  940  960  980 1000 1020 1040
            2  0  0  0     2.200    821  841  861  881  901  921  941  961  981 1001 1021 1041
            1  1  0  0     2.200    822  842  862  882  902  922  942  962  982 1002 1022 1042
            1  0  1  0     2.200    823  843  863  883  903  923  943  963  983 1003 1023 1043
            0  2  0  0     2.200    824  844  864  884  904  924  944  964  984 1004 1024 1044
            0  1  1  0     2.200    825  845  865  885  905  925  945  965  985 1005 1025 1045
            0  0  2  0     2.200    826  846  866  886  906  926  946  966  986 1006 1026 1046

 Total number of charge fitting functions (nprimf)      5165
 Total number of Cartesian basis functions (naos)       1046
 Total number of Cartesian core functions  (ncos)          0

1
 ***************************************************************************************************



                                              ***********************
                                              *  T E C H N I C A L  *
                                              ***********************
  



 =============================================================
 P A R A L L E L I Z A T I O N  and  V E C T O R I Z A T I O N
 =============================================================
  
 Nr of parallel processes:                               16
 Maximum vector length in NumInt loops:                 128



 =====================
 S C F   U P D A T E S
 =====================
  
 Max. nr. of cycles:                               300
 Convergence criterion:                              0.0000010000
   secondary criterion:                              0.0010000000

 Mix parameter (when DIIS does not apply):           0.2000000000
 Mixed ADIIS+SDIIS will be used                  
    Max number of expansion vectors:                10
    Pure ADIIS when Max([F,P]) is above              0.1000000000
    Pure SDIIS when Max([F,P]) is below              0.0010000000
 Automatic ElectronSmearing (in case of problematic SCF convergence) disabled



 =================
 P R E C I S I O N  ***  (General: NumInt, NeglectFunctionTails, ...)  ***
 =================
  

 NumInt:           Target precision:                 8.0000000000
 -------           Initial precision:                8.0000000000
                   Min. precision (optimization):    8.0000000000

 Neglect Functions:          Basis functions:        0.1000000000E-09
 ------------------          Fit functions:          0.1000000000E-09



 ===========================
 L I N E A R   S C A L I N G
 ===========================
  

 Cut-off radii density fit:                        0.1000000000E-11
 Overlap cut-off criterion AO matrix elements:     0.1000000000E-09
 Cut-offs for Coulomb potential and fitted density:0.1000000000E-11
 Cut-off criterion for Coulomb multipole terms:    0.1000000000E-11
 Progressive Convergence parameter:                 0.000000000    
1
 ***************************************************************************************************



                                            ***************************
                                            *  C O M P U T A T I O N  *
                                            ***************************
  

 Number of elements of the density matrix on this node (used, total):     34334    547581



 ===========================================
 Numerical Integration : Fuzzy Cells (Becke)
 ===========================================
  
 Becke grid quality: VERYGOOD       
  
 Lebedev angular grid order:             min:  13 max:  41
 Nr. of radial points:                   min:  64 max: 183

 Total nr. of points:    1765906
 Nr. of blocks:            13797
 Block length:               128
 Nr. of dummy points:        110


 Test of Precision of the Numerical Integration Grid
 ===================================================

 Integral of the Total Core Density:                   0.00000000000000



 ========================
 Density Fitting (zlmFit)
 ========================
  
 ZlmFit Fit Quality: VERYGOOD       
  
 Max L-expansion:                        min:   9 max:  10
 Nr. of radial interpolation points:     min: 120 max: 400



 ======================
 RI Hartree-Fock Scheme
 ======================
  
 Fit Set Quality     : VERYGOOD
 Threshold Quality   : VERYGOOD
 Integration Quality : VERYGOOD
 Fit Generation Method : AUTO
 Response Quality    : DEFAULT
 Is Range Separated  :  F
 
 RIHartreeFock Dependency: number of modified vectors:          63



 =====
 S C F  ***  ScaSCF  ***
 =====
  
 Initial density matrix is calculated as sum of fragments

 CYCLE    1
 SCF Error: norm([F,P])=      3.895422163082, max([F,P])=      2.241912062015
 orbitals (Q,E):
 ---------------
 A :167...186        ( 2.00    -0.3127)  ( 2.00    -0.3086)  ( 2.00    -0.2923)  ( 2.00    -0.2704)
                     ( 2.00    -0.2634)  ( 2.00    -0.2422)  ( 2.00    -0.2370)  ( 2.00    -0.2308)
                     ( 2.00    -0.2138)  ( 2.00    -0.1906)  ( 0.00    -0.0644)  ( 0.00    -0.0433)
                     ( 0.00    -0.0339)  ( 0.00    -0.0156)  ( 0.00    -0.0071)  ( 0.00    -0.0000)
                     ( 0.00     0.0074)  ( 0.00     0.0094)  ( 0.00     0.0116)  ( 0.00     0.0150)

 CYCLE    2
   MIX coefficients:  0.8000  0.2000
 SCF Error: norm([F,P])=      0.437228687488, max([F,P])=      0.053941844026
 orbitals (Q,E):
 ---------------
 A :167...177        ( 2.00    -0.3137)  ( 2.00    -0.3113)  ( 2.00    -0.2943)  ( 2.00    -0.2705)
                     ( 2.00    -0.2687)  ( 2.00    -0.2661)  ( 2.00    -0.2593)  ( 2.00    -0.2588)
                     ( 2.00    -0.2318)  ( 2.00    -0.2006)  ( 0.00    -0.0619)

 CYCLE    3
  SDIIS (wt  0.000): -0.1646  1.1646
 A-DIIS (wt  1.000):  0.0000  1.0000
  DIIS coefficients:  0.0000  1.0000
 SCF Error: norm([F,P])=      0.088040563752, max([F,P])=      0.011466172619
 orbitals (Q,E):
 ---------------
 A :167...177        ( 2.00    -0.3126)  ( 2.00    -0.3083)  ( 2.00    -0.2942)  ( 2.00    -0.2842)
                     ( 2.00    -0.2786)  ( 2.00    -0.2770)  ( 2.00    -0.2635)  ( 2.00    -0.2602)
                     ( 2.00    -0.2398)  ( 2.00    -0.2045)  ( 0.00    -0.0570)

 CYCLE    4
  SDIIS (wt  0.000):  0.2004  0.2441  0.5556
 A-DIIS (wt  1.000):  0.0000  0.7223  0.2777
  DIIS coefficients:  0.0000  0.7223  0.2777
 SCF Error: norm([F,P])=      0.190472519955, max([F,P])=      0.021098080429
 orbitals (Q,E):
 ---------------
 A :167...177        ( 2.00    -0.3113)  ( 2.00    -0.3078)  ( 2.00    -0.2911)  ( 2.00    -0.2699)
                     ( 2.00    -0.2672)  ( 2.00    -0.2648)  ( 2.00    -0.2603)  ( 2.00    -0.2576)
                     ( 2.00    -0.2310)  ( 2.00    -0.2009)  ( 0.00    -0.0576)

 CYCLE    5
  SDIIS (wt  0.972): -0.1880  0.4265 -0.1981  0.9595
 A-DIIS (wt  0.028):  0.0000  0.0000  0.0000  1.0000
  DIIS coefficients: -0.1827  0.4146 -0.1925  0.9607
 SCF Error: norm([F,P])=      0.032880977041, max([F,P])=      0.003756977419
 orbitals (Q,E):
 ---------------
 A :167...177        ( 2.00    -0.3128)  ( 2.00    -0.3086)  ( 2.00    -0.2922)  ( 2.00    -0.2725)
                     ( 2.00    -0.2694)  ( 2.00    -0.2666)  ( 2.00    -0.2625)  ( 2.00    -0.2590)
                     ( 2.00    -0.2332)  ( 2.00    -0.2025)  ( 0.00    -0.0583)

 CYCLE    6
  SDIIS (wt  0.999): -0.0975  0.1604 -0.1150  0.4602  0.5919
 A-DIIS (wt  0.001):  0.0000  0.0000  0.0000  0.0000  1.0000
  DIIS coefficients: -0.0974  0.1603 -0.1149  0.4599  0.5922
 SCF Error: norm([F,P])=      0.010487551941, max([F,P])=      0.001057941484
 orbitals (Q,E):
 ---------------
 A :167...177        ( 2.00    -0.3123)  ( 2.00    -0.3081)  ( 2.00    -0.2918)  ( 2.00    -0.2714)
                     ( 2.00    -0.2685)  ( 2.00    -0.2658)  ( 2.00    -0.2616)  ( 2.00    -0.2583)
                     ( 2.00    -0.2322)  ( 2.00    -0.2017)  ( 0.00    -0.0579)

 CYCLE    7
  SDIIS (wt  1.000): -0.0023 -0.0244  0.0121  0.0164  0.4523  0.5458
  DIIS coefficients: -0.0023 -0.0244  0.0121  0.0164  0.4523  0.5458
 SCF Error: norm([F,P])=      0.009060774867, max([F,P])=      0.000945186580
 orbitals (Q,E):
 ---------------
 A :167...177        ( 2.00    -0.3125)  ( 2.00    -0.3082)  ( 2.00    -0.2919)  ( 2.00    -0.2721)
                     ( 2.00    -0.2690)  ( 2.00    -0.2662)  ( 2.00    -0.2621)  ( 2.00    -0.2586)
                     ( 2.00    -0.2328)  ( 2.00    -0.2020)  ( 0.00    -0.0579)

 CYCLE    8
  SDIIS (wt  1.000):  0.0024 -0.0207  0.0124 -0.0123  0.2327  0.3165  0.4692
  DIIS coefficients:  0.0024 -0.0207  0.0124 -0.0123  0.2327  0.3165  0.4692
 SCF Error: norm([F,P])=      0.001730247009, max([F,P])=      0.000141490307
 orbitals (Q,E):
 ---------------
 A :167...177        ( 2.00    -0.3125)  ( 2.00    -0.3082)  ( 2.00    -0.2919)  ( 2.00    -0.2721)
                     ( 2.00    -0.2691)  ( 2.00    -0.2663)  ( 2.00    -0.2621)  ( 2.00    -0.2586)
                     ( 2.00    -0.2328)  ( 2.00    -0.2020)  ( 0.00    -0.0580)

 CYCLE    9
  SDIIS (wt  1.000):  0.0001 -0.0046  0.0018 -0.0082  0.0330  0.0620  0.2637  0.6523
  DIIS coefficients:  0.0001 -0.0046  0.0018 -0.0082  0.0330  0.0620  0.2637  0.6523
 SCF Error: norm([F,P])=      0.000583017417, max([F,P])=      0.000064359659
 orbitals (Q,E):
 ---------------
 A :167...177        ( 2.00    -0.3125)  ( 2.00    -0.3082)  ( 2.00    -0.2919)  ( 2.00    -0.2721)
                     ( 2.00    -0.2691)  ( 2.00    -0.2663)  ( 2.00    -0.2621)  ( 2.00    -0.2586)
                     ( 2.00    -0.2328)  ( 2.00    -0.2020)  ( 0.00    -0.0579)

 CYCLE   10
  SDIIS (wt  1.000): -0.0008  0.0010 -0.0018 -0.0023 -0.0180 -0.0138  0.0863  0.3729  0.5764
  DIIS coefficients: -0.0008  0.0010 -0.0018 -0.0023 -0.0180 -0.0138  0.0863  0.3729  0.5764
 SCF Error: norm([F,P])=      0.000238780741, max([F,P])=      0.000026950908
 orbitals (Q,E):
 ---------------
 A :167...177        ( 2.00    -0.3125)  ( 2.00    -0.3082)  ( 2.00    -0.2919)  ( 2.00    -0.2721)
                     ( 2.00    -0.2691)  ( 2.00    -0.2663)  ( 2.00    -0.2621)  ( 2.00    -0.2586)
                     ( 2.00    -0.2328)  ( 2.00    -0.2020)  ( 0.00    -0.0579)

 CYCLE   11
  SDIIS (wt  1.000): -0.0005  0.0015 -0.0013  0.0005 -0.0151 -0.0185 -0.0087  0.0464  0.3320  0.6638
  DIIS coefficients: -0.0005  0.0015 -0.0013  0.0005 -0.0151 -0.0185 -0.0087  0.0464  0.3320  0.6638
 SCF Error: norm([F,P])=      0.000101016285, max([F,P])=      0.000007544902
 orbitals (Q,E):
 ---------------
 A :167...177        ( 2.00    -0.3125)  ( 2.00    -0.3082)  ( 2.00    -0.2919)  ( 2.00    -0.2721)
                     ( 2.00    -0.2691)  ( 2.00    -0.2663)  ( 2.00    -0.2621)  ( 2.00    -0.2586)
                     ( 2.00    -0.2328)  ( 2.00    -0.2020)  ( 0.00    -0.0579)

 CYCLE   12
  SDIIS (wt  1.000):  0.0005 -0.0003  0.0001 -0.0055 -0.0074 -0.0143 -0.0266  0.1175  0.3813  0.5546
  DIIS coefficients:  0.0005 -0.0003  0.0001 -0.0055 -0.0074 -0.0143 -0.0266  0.1175  0.3813  0.5546
 SCF Error: norm([F,P])=      0.000044755525, max([F,P])=      0.000004105080
 orbitals (Q,E):
 ---------------
 A :167...177        ( 2.00    -0.3125)  ( 2.00    -0.3082)  ( 2.00    -0.2919)  ( 2.00    -0.2721)
                     ( 2.00    -0.2691)  ( 2.00    -0.2663)  ( 2.00    -0.2621)  ( 2.00    -0.2586)
                     ( 2.00    -0.2328)  ( 2.00    -0.2020)  ( 0.00    -0.0579)

 CYCLE   13
  SDIIS (wt  1.000): -0.0000  0.0003  0.0008  0.0005 -0.0032 -0.0179  0.0122  0.0881  0.3187  0.6005
  DIIS coefficients: -0.0000  0.0003  0.0008  0.0005 -0.0032 -0.0179  0.0122  0.0881  0.3187  0.6005
 SCF Error: norm([F,P])=      0.000022592154, max([F,P])=      0.000002040856
 orbitals (Q,E):
 ---------------
 A :167...177        ( 2.00    -0.3125)  ( 2.00    -0.3082)  ( 2.00    -0.2919)  ( 2.00    -0.2721)
                     ( 2.00    -0.2691)  ( 2.00    -0.2663)  ( 2.00    -0.2621)  ( 2.00    -0.2586)
                     ( 2.00    -0.2328)  ( 2.00    -0.2020)  ( 0.00    -0.0579)

 CYCLE   14
  SDIIS (wt  1.000):  0.0001  0.0004  0.0005 -0.0017 -0.0115 -0.0145 -0.0076  0.0952  0.3197  0.6194
  DIIS coefficients:  0.0001  0.0004  0.0005 -0.0017 -0.0115 -0.0145 -0.0076  0.0952  0.3197  0.6194
 SCF Error: norm([F,P])=      0.000010217280, max([F,P])=      0.000001007167
 orbitals (Q,E):
 ---------------
 A :167...177        ( 2.00    -0.3125)  ( 2.00    -0.3082)  ( 2.00    -0.2919)  ( 2.00    -0.2721)
                     ( 2.00    -0.2691)  ( 2.00    -0.2663)  ( 2.00    -0.2621)  ( 2.00    -0.2586)
                     ( 2.00    -0.2328)  ( 2.00    -0.2020)  ( 0.00    -0.0579)

 CYCLE   15
  SDIIS (wt  1.000):  0.0001  0.0001 -0.0004 -0.0038 -0.0068 -0.0098  0.0241  0.1162  0.3084  0.5719
  DIIS coefficients:  0.0001  0.0001 -0.0004 -0.0038 -0.0068 -0.0098  0.0241  0.1162  0.3084  0.5719
 SCF Error: norm([F,P])=      0.000002378732, max([F,P])=      0.000000207595
 orbitals (Q,E):
 ---------------
 A :167...177        ( 2.00    -0.3125)  ( 2.00    -0.3082)  ( 2.00    -0.2919)  ( 2.00    -0.2721)
                     ( 2.00    -0.2691)  ( 2.00    -0.2663)  ( 2.00    -0.2621)  ( 2.00    -0.2586)
                     ( 2.00    -0.2328)  ( 2.00    -0.2020)  ( 0.00    -0.0579)

 SCF CONVERGED

 CYCLE   16
1
 ***************************************************************************************************



                                                *******************
                                                *  R E S U L T S  *
                                                *******************
  
  
 Hartree-Fock exchange energy:   -437.013014771371     
 *** Using FIT density in Focky
[...]
     450       27.4549         0.000       
     449       27.3384         0.000       
     448       27.2258         0.000       
     447       27.0934         0.000       
     446       26.8911         0.000       
     445       26.8743         0.000       
     444       26.8471         0.000       
     443       26.7458         0.000       
     442       26.4236         0.000       
     441       26.3239         0.000       
     440       26.1452         0.000       
     439       26.0705         0.000       
     438       25.6567         0.000       
     437       25.6150         0.000       
     436       25.4617         0.000       
     435       25.3259         0.000       
     434       25.2314         0.000       
     433       25.0857         0.000       
     432       24.9640         0.000       
     431       24.8762         0.000       
     430       24.7485         0.000       
     429       24.7210         0.000       
     428       24.6154         0.000       
     427       24.3993         0.000       
     426       24.3654         0.000       
     425       24.1037         0.000       
     424       24.0138         0.000       
     423       23.8533         0.000       
     422       23.5939         0.000       
     421       23.4411         0.000       
     420       23.2054         0.000       
     419       23.1106         0.000       
     418       22.8771         0.000       
     417       22.8510         0.000       
     416       22.7071         0.000       
     415       22.5710         0.000       
     414       22.3302         0.000       
     413       22.2751         0.000       
     412       22.0063         0.000       
     411       21.9647         0.000       
     410       21.9222         0.000       
     409       21.8069         0.000       
     408       21.6969         0.000       
     407       21.6081         0.000       
     406       21.4465         0.000       
     405       21.2757         0.000       
     404       20.9626         0.000       
     403       20.8761         0.000       
     402       20.8307         0.000       
     401       20.7180         0.000       
     400       20.6018         0.000       
     399       20.5046         0.000       
     398       20.2962         0.000       
     397       20.2097         0.000       
     396       20.1684         0.000       
     395       20.0281         0.000       
     394       19.9021         0.000       
     393       19.7026         0.000       
     392       19.5035         0.000       
     391       19.4607         0.000       
     390       19.3856         0.000       
     389       19.1802         0.000       
     388       19.1305         0.000       
     387       19.0083         0.000       
     386       18.7524         0.000       
     385       18.6753         0.000       
     384       18.5755         0.000       
     383       18.4360         0.000       
     382       18.3017         0.000       
     381       18.2396         0.000       
     380       18.1074         0.000       
     379       17.9201         0.000       
     378       17.8614         0.000       
     377       17.7593         0.000       
     376       17.7337         0.000       
     375       17.4955         0.000       
     374       17.4258         0.000       
     373       17.2627         0.000       
     372       17.2347         0.000       
     371       17.1468         0.000       
     370       17.0307         0.000       
     369       16.9237         0.000       
     368       16.8203         0.000       
     367       16.6806         0.000       
     366       16.5438         0.000       
     365       16.4300         0.000       
     364       16.3259         0.000       
     363       16.2488         0.000       
     362       16.1689         0.000       
     361       15.9650         0.000       
     360       15.8904         0.000       
     359       15.7764         0.000       
     358       15.7026         0.000       
     357       15.6729         0.000       
     356       15.5555         0.000       
     355       15.4819         0.000       
     354       15.2966         0.000       
     353       15.2378         0.000       
     352       15.1271         0.000       
     351       15.0897         0.000       
     350       14.9906         0.000       
     349       14.9392         0.000       
     348       14.8269         0.000       
     347       14.7648         0.000       
     346       14.7363         0.000       
     345       14.6293         0.000       
     344       14.5049         0.000       
     343       14.4341         0.000       
     342       14.2852         0.000       
     341       14.1885         0.000       
     340       14.0632         0.000       
     339       13.9699         0.000       
     338       13.8704         0.000       
     337       13.7490         0.000       
     336       13.7020         0.000       
     335       13.5902         0.000       
     334       13.4374         0.000       
     333       13.4022         0.000       
     332       13.2400         0.000       
     331       13.1209         0.000       
     330       12.9332         0.000       
     329       12.9211         0.000       
     328       12.8556         0.000       
     327       12.7738         0.000       
     326       12.6592         0.000       
     325       12.4613         0.000       
     324       12.3727         0.000       
     323       12.2678         0.000       
     322       12.2630         0.000       
     321       12.1155         0.000       
     320       12.0140         0.000       
     319       11.9301         0.000       
     318       11.8371         0.000       
     317       11.7451         0.000       
     316       11.7165         0.000       
     315       11.6601         0.000       
     314       11.6216         0.000       
     313       11.5317         0.000       
     312       11.4750         0.000       
     311       11.3224         0.000       
     310       11.2020         0.000       
     309       11.1466         0.000       
     308       11.1095         0.000       
     307       11.0155         0.000       
     306       10.9339         0.000       
     305       10.8945         0.000       
     304       10.8137         0.000       
     303       10.6829         0.000       
     302       10.5826         0.000       
     301       10.5213         0.000       
     300       10.3804         0.000       
     299       10.2430         0.000       
     298       10.1845         0.000       
     297       10.0920         0.000       
     296        9.9519         0.000       
     295        9.8999         0.000       
     294        9.8808         0.000       
     293        9.7909         0.000       
     292        9.7438         0.000       
     291        9.6880         0.000       
     290        9.4175         0.000       
     289        9.3517         0.000       
     288        9.2848         0.000       
     287        9.1806         0.000       
     286        9.0847         0.000       
     285        8.9909         0.000       
     284        8.9194         0.000       
     283        8.8094         0.000       
     282        8.7847         0.000       
     281        8.7234         0.000       
     280        8.6069         0.000       
     279        8.4610         0.000       
     278        8.3812         0.000       
     277        8.3548         0.000       
     276        8.2216         0.000       
     275        8.1689         0.000       
     274        8.0698         0.000       
     273        7.9939         0.000       
     272        7.7500         0.000       
     271        7.7080         0.000       
     270        7.5850         0.000       
     269        7.4923         0.000       
     268        7.4830         0.000       
     267        7.3070         0.000       
     266        7.2766         0.000       
     265        7.1826         0.000       
     264        7.0676         0.000       
     263        6.9078         0.000       
     262        6.8329         0.000       
     261        6.8194         0.000       
     260        6.7558         0.000       
     259        6.6725         0.000       
     258        6.6245         0.000       
     257        6.5953         0.000       
     256        6.3991         0.000       
     255        6.3357         0.000       
     254        6.2355         0.000       
     253        6.1738         0.000       
     252        6.0754         0.000       
     251        6.0188         0.000       
     250        5.9072         0.000       
     249        5.8435         0.000       
     248        5.7680         0.000       
     247        5.6783         0.000       
     246        5.5283         0.000       
     245        5.4790         0.000       
     244        5.3891         0.000       
     243        5.2258         0.000       
     242        5.1219         0.000       
     241        5.0861         0.000       
     240        4.9669         0.000       
     239        4.9292         0.000       
     238        4.8912         0.000       
     237        4.7509         0.000       
     236        4.7184         0.000       
     235        4.6793         0.000       
     234        4.5921         0.000       
     233        4.5245         0.000       
     232        4.5002         0.000       
     231        4.3912         0.000       
     230        4.2401         0.000       
     229        4.1685         0.000       
     228        4.0005         0.000       
     227        3.9005         0.000       
     226        3.8820         0.000       
     225        3.6810         0.000       
     224        3.6637         0.000       
     223        3.6384         0.000       
     222        3.5279         0.000       
     221        3.4797         0.000       
     220        3.3853         0.000       
     219        3.3233         0.000       
     218        3.2479         0.000       
     217        3.1522         0.000       
     216        3.1140         0.000       
     215        2.9644         0.000       
     214        2.8887         0.000       
     213        2.8332         0.000       
     212        2.7938         0.000       
     211        2.5895         0.000       
     210        2.5859         0.000       
     209        2.4836         0.000       
     208        2.4048         0.000       
     207        2.3694         0.000       
     206        2.2802         0.000       
     205        2.1683         0.000       
     204        2.1223         0.000       
     203        2.0252         0.000       
     202        1.9215         0.000       
     201        1.8714         0.000       
     200        1.8195         0.000       
     199        1.7865         0.000       
     198        1.6596         0.000       
     197        1.5558         0.000       
     196        1.4488         0.000       
     195        1.3858         0.000       
     194        1.3401         0.000       
     193        1.2369         0.000       
     192        1.0866         0.000       
     191        0.8981         0.000       
     190        0.8248         0.000       
     189        0.7852         0.000       
     188        0.7319         0.000       
     187        0.6772         0.000       
     186        0.4213         0.000       
     185        0.3876         0.000       
     184        0.3522         0.000       
     183        0.1813         0.000       
     182        0.0945         0.000       
     181       -0.0578         0.000       
     180       -0.3227         0.000       
     179       -0.7963         0.000       
     178       -1.3388         0.000       
     177       -1.5766         0.000 < LUMO
     176       -5.4968         2.000 < HOMO
     175       -6.3350         2.000       
     174       -7.0377         2.000       
     173       -7.1322         2.000       
     172       -7.2459         2.000       
     171       -7.3218         2.000       
     170       -7.4053         2.000       
     169       -7.9425         2.000       
     168       -8.3865         2.000       
     167       -8.5027         2.000       
     166       -8.6143         2.000       
     165       -8.6562         2.000       
     164       -8.7035         2.000       
     163       -8.7284         2.000       
     162       -9.0583         2.000       
     161       -9.2460         2.000       
     160       -9.4038         2.000       
     159       -9.5368         2.000       
     158       -9.6779         2.000       
     157       -9.7266         2.000       
     156       -9.8156         2.000       
     155       -9.8905         2.000       
     154      -10.0173         2.000       
     153      -10.1475         2.000       
     152      -10.1686         2.000       
     151      -10.2274         2.000       
     150      -10.2349         2.000       
     149      -10.5391         2.000       
     148      -10.5523         2.000       
     147      -10.6411         2.000       
     146      -10.7135         2.000       
     145      -10.8510         2.000       
     144      -10.9128         2.000       
     143      -11.0226         2.000       
     142      -11.0906         2.000       
     141      -11.1341         2.000       
     140      -11.3545         2.000       
     139      -11.3810         2.000       
     138      -11.5228         2.000       
     137      -11.5516         2.000       
     136      -11.7126         2.000       
     135      -11.8305         2.000       
     134      -12.0027         2.000       
     133      -12.1854         2.000       
     132      -12.3263         2.000       
     131      -12.4176         2.000       
     130      -12.4534         2.000       
     129      -12.5133         2.000       
     128      -12.5492         2.000       
     127      -12.6113         2.000       
     126      -12.7071         2.000       
     125      -12.8666         2.000       
     124      -12.9499         2.000       
     123      -13.0007         2.000       
     122      -13.1333         2.000       
     121      -13.2846         2.000       
     120      -13.3308         2.000       
     119      -13.5388         2.000       
     118      -13.5841         2.000       
     117      -13.5978         2.000       
     116      -13.6475         2.000       
     115      -13.7004         2.000       
     114      -13.8307         2.000       
     113      -14.0414         2.000       
     112      -14.1450         2.000       
     111      -14.3781         2.000       
     110      -14.6942         2.000       
     109      -14.8893         2.000       
     108      -15.0226         2.000       
     107      -15.2208         2.000       
     106      -15.4464         2.000       
     105      -15.5738         2.000       
     104      -15.8639         2.000       
     103      -15.9084         2.000       
     102      -16.1742         2.000       
     101      -16.4000         2.000       
     100      -16.4787         2.000       
      99      -17.1924         2.000       
      98      -17.4646         2.000       
      97      -17.7367         2.000       
      96      -18.5203         2.000       
      95      -18.8498         2.000       
      94      -18.9601         2.000       
      93      -19.2842         2.000       
      92      -19.5621         2.000       
      91      -19.6514         2.000       
      90      -19.7429         2.000       
      89      -19.8002         2.000       
      88      -19.9817         2.000       
      87      -20.0590         2.000       
      86      -20.4909         2.000       
      85      -21.2793         2.000       
      84      -21.6271         2.000       
      83      -21.9092         2.000       
      82      -22.7849         2.000       
      81      -23.1157         2.000       
      80      -23.1681         2.000       
      79      -23.8309         2.000       
      78      -24.5761         2.000       
      77      -24.6558         2.000       
      76      -24.9203         2.000       
      75      -27.0642         2.000       
      74      -28.3663         2.000       
      73      -30.5203         2.000       
      72      -31.3728         2.000       
      71      -35.0151         2.000       
      70      -35.1954         2.000       
      69      -35.4353         2.000       
      68      -35.6742         2.000       
      67      -57.0570         2.000       
      66      -57.5391         2.000       
      65      -57.8759         2.000       
      64      -92.8516         2.000       
      63     -129.4423         2.000       
      62     -129.5203         2.000       
      61     -129.5247         2.000       
      60     -166.0904         2.000       
      59     -166.1026         2.000       
      58     -166.1468         2.000       
      57     -181.3073         2.000       
      56     -197.5356         2.000       
      55     -197.5482         2.000       
      54     -197.8360         2.000       
      53     -223.6595         2.000       
      52     -261.1844         2.000       
      51     -278.2582         2.000       
      50     -278.3448         2.000       
      49     -278.4314         2.000       
      48     -278.4815         2.000       
      47     -278.5324         2.000       
      46     -278.5465         2.000       
      45     -278.5511         2.000       
      44     -278.5826         2.000       
      43     -278.6000         2.000       
      42     -278.9396         2.000       
      41     -278.9774         2.000       
      40     -278.9919         2.000       
      39     -279.3923         2.000       
      38     -279.5821         2.000       
      37     -279.6030         2.000       
      36     -279.6302         2.000       
      35     -279.7204         2.000       
      34     -280.0843         2.000       
      33     -280.3467         2.000       
      32     -280.4563         2.000       
      31     -280.5732         2.000       
      30     -280.9007         2.000       
      29     -281.5953         2.000       
      28     -281.6077         2.000       
      27     -281.6315         2.000       
      26     -281.6470         2.000       
      25     -337.1008         2.000       
      24     -337.1161         2.000       
      23     -337.1787         2.000       
      22     -337.2662         2.000       
      21     -337.2750         2.000       
      20     -393.5095         2.000       
      19     -523.0666         2.000       
      18     -523.1119         2.000       
      17     -524.2988         2.000       
      16     -530.9487         2.000       
      15     -531.1296         2.000       
      14     -531.2090         2.000       
      13     -652.9324         2.000       
      12     -675.4885         2.000       
      11     -675.7451         2.000       
      10     -675.7936         2.000       
       9     -675.7947         2.000       
       8    -2107.4022         2.000       
       7    -2435.4359         2.000       
       6    -2777.4128         2.000       
       5    -3189.0736         2.000       
       4    -3189.1563         2.000       
       3    -3189.1789         2.000       
       2    -3560.0871         2.000       
       1   -24223.3257         2.000       

AMS application finished. Exiting.
NORMAL TERMINATION
     Total cpu time:    2126.89
  Total system time:      28.96
 Total elapsed time:    2168.09
NORMAL TERMINATION
